 
             +---------------------------------------------------+
             |                                                   |
             |                   WANNIER90                       |
             |                                                   |
             +---------------------------------------------------+
             |                                                   |
             |        Welcome to the Maximally-Localized         |
             |        Generalized Wannier Functions code         |
             |            http://www.wannier.org                 |
             |                                                   |
             |                                                   |
             |  Wannier90 Developer Group:                       |
             |    Giovanni Pizzi    (EPFL)                       |
             |    Valerio Vitale    (Cambridge)                  |
             |    David Vanderbilt  (Rutgers University)         |
             |    Nicola Marzari    (EPFL)                       |
             |    Ivo Souza         (Universidad del Pais Vasco) |
             |    Arash A. Mostofi  (Imperial College London)    |
             |    Jonathan R. Yates (University of Oxford)       |
             |                                                   |
             |  For the full list of Wannier90 3.x authors,      |
             |  please check the code documentation and the      |
             |  README on the GitHub page of the code            |
             |                                                   |
             |                                                   |
             |  Please cite                                      |
             |                                                   |
             |  [ref] "Wannier90 as a community code:            |
             |        new features and applications",            |
             |        G. Pizzi et al., J. Phys. Cond. Matt. 32,  |
             |        165902 (2020).                             |
             |        http://doi.org/10.1088/1361-648X/ab51ff    |
             |                                                   |
             |  in any publications arising from the use of      |
             |  this code. For the method please cite            |
             |                                                   |
             |  [ref] "Maximally Localized Generalised Wannier   |
             |         Functions for Composite Energy Bands"     |
             |         N. Marzari and D. Vanderbilt              |
             |         Phys. Rev. B 56 12847 (1997)              |
             |                                                   |
             |  [ref] "Maximally Localized Wannier Functions     |
             |         for Entangled Energy Bands"               |
             |         I. Souza, N. Marzari and D. Vanderbilt    |
             |         Phys. Rev. B 65 035109 (2001)             |
             |                                                   |
             |                                                   |
             | Copyright (c) 1996-2020                           |
             |        The Wannier90 Developer Group and          |
             |        individual contributors                    |
             |                                                   |
             |      Release: 3.1.0        5th March    2020      |
             |                                                   |
             | This program is free software; you can            |
             | redistribute it and/or modify it under the terms  |
             | of the GNU General Public License as published by |
             | the Free Software Foundation; either version 2 of |
             | the License, or (at your option) any later version|
             |                                                   |
             | This program is distributed in the hope that it   |
             | will be useful, but WITHOUT ANY WARRANTY; without |
             | even the implied warranty of MERCHANTABILITY or   |
             | FITNESS FOR A PARTICULAR PURPOSE. See the GNU     |
             | General Public License for more details.          |
             |                                                   |
             | You should have received a copy of the GNU General|
             | Public License along with this program; if not,   |
             | write to the Free Software Foundation, Inc.,      |
             | 675 Mass Ave, Cambridge, MA 02139, USA.           |
             |                                                   |
             +---------------------------------------------------+
             |    Execution started on 25Mar2021 at 14:54:28     |
             +---------------------------------------------------+
 
 ******************************************************************************
 * -> Using CODATA 2006 constant values                                       *
 *    (http://physics.nist.gov/cuu/Constants/index.html)                      *
 * -> Using Bohr value from CODATA                                            *
 ******************************************************************************
 

 Running in parallel on  68 CPUs

 
                                    ------
                                    SYSTEM
                                    ------
 
                              Lattice Vectors (Ang)
                    a_1    -2.689422   0.000000   2.689422
                    a_2     0.000000   2.689422   2.689422
                    a_3    -2.689422   2.689422   0.000000
 
                   Unit Cell Volume:      38.90513  (Ang^3)
 
                        Reciprocal-Space Vectors (Ang^-1)
                    b_1    -1.168129  -1.168129   1.168129
                    b_2     1.168129   1.168129   1.168129
                    b_3    -1.168129   1.168129  -1.168129
  
 *----------------------------------------------------------------------------*
 |   Site       Fractional Coordinate          Cartesian Coordinate (Ang)     |
 +----------------------------------------------------------------------------+
 | Si   1  -0.12500  -0.12500  -0.12500   |    0.67236  -0.67236  -0.67236    |
 | Si   2   0.12500   0.12500   0.12500   |   -0.67236   0.67236   0.67236    |
 *----------------------------------------------------------------------------*
                                ------------
                                K-POINT GRID
                                ------------
  
             Grid size =  8 x  8 x  8      Total points =  512
  
  
 *---------------------------------- MAIN ------------------------------------*
 |  Number of Wannier Functions               :                26             |
 |  Number of Objective Wannier Functions     :                26             |
 |  Number of input Bloch states              :                34             |
 |  Output verbosity (1=low, 5=high)          :                 1             |
 |  Timing Level (1=low, 5=high)              :                 1             |
 |  Optimisation (0=memory, 3=speed)          :                 3             |
 |  Length Unit                               :               Ang             |
 |  Post-processing setup (write *.nnkp)      :                 F             |
 |  Using Gamma-only branch of algorithms     :                 F             |
 *----------------------------------------------------------------------------*
 *------------------------------- WANNIERISE ---------------------------------*
 |  Total number of iterations                :             10000             |
 |  Number of CG steps before reset           :                 5             |
 |  Trial step length for line search         :             2.000             |
 |  Convergence tolerence                     :         0.100E-09             |
 |  Convergence window                        :                -1             |
 |  Iterations between writing output         :               500             |
 |  Iterations between backing up to disk     :               100             |
 |  Write r^2_nm to file                      :                 F             |
 |  Write xyz WF centres to file              :                 F             |
 |  Write on-site energies <0n|H|0n> to file  :                 F             |
 |  Use guiding centre to control phases      :                 F             |
 |  Use phases for initial projections        :                 F             |
 *----------------------------------------------------------------------------*
 *------------------------------- DISENTANGLE --------------------------------*
 |  Using band disentanglement                :                 T             |
 |  Total number of iterations                :             20000             |
 |  Mixing ratio                              :             0.800             |
 |  Convergence tolerence                     :         1.000E-10             |
 |  Convergence window                        :                 3             |
 *----------------------------------------------------------------------------*
 *-------------------------------- PLOTTING ----------------------------------*
 |  Plotting interpolated bandstructure       :                 T             |
 |   Number of K-path sections                :                 5             |
 |   Divisions along first K-path section     :               100             |
 |   Output format                            :           gnuplot             |
 |   Output mode                              :               s-k             |
 *----------------------------------------------------------------------------*
 |   K-space path sections:                                                   |
 |    From: G       0.000  0.000  0.000     To: X       0.500  0.000  0.500   |
 |    From: X       0.500  0.000  0.500     To: W       0.500  0.250  0.750   |
 |    From: W       0.500  0.250  0.750     To: K       0.375  0.375  0.750   |
 |    From: K       0.375  0.375  0.750     To: G       0.000  0.000  0.000   |
 |    From: G       0.000  0.000  0.000     To: L       0.500  0.500  0.500   |
 *----------------------------------------------------------------------------*
 Time to read parameters        0.338 (sec)

 *---------------------------------- K-MESH ----------------------------------*
 +----------------------------------------------------------------------------+
 |                    Distance to Nearest-Neighbour Shells                    |
 |                    ------------------------------------                    |
 |          Shell             Distance (Ang^-1)          Multiplicity         |
 |          -----             -----------------          ------------         |
 |             1                   0.252907                      8            |
 |             2                   0.292032                      6            |
 |             3                   0.412996                     12            |
 |             4                   0.484281                     24            |
 |             5                   0.505815                      8            |
 |             6                   0.584065                      6            |
 |             7                   0.636470                     24            |
 |             8                   0.653004                     24            |
 |             9                   0.715330                     24            |
 |            10                   0.758722                     32            |
 |            11                   0.825992                     12            |
 |            12                   0.863843                     48            |
 |            13                   0.876097                     30            |
 |            14                   0.923487                     24            |
 |            15                   0.957492                     24            |
 |            16                   0.968562                     24            |
 |            17                   1.011630                      8            |
 |            18                   1.042764                     48            |
 |            19                   1.052938                     24            |
 |            20                   1.092685                     48            |
 |            21                   1.121571                     72            |
 |            22                   1.168129                      6            |
 |            23                   1.195194                     24            |
 |            24                   1.204080                     48            |
 |            25                   1.238988                     36            |
 |            26                   1.264537                     56            |
 |            27                   1.272939                     24            |
 |            28                   1.306008                     24            |
 |            29                   1.330271                     72            |
 |            30                   1.338260                     48            |
 |            31                   1.369753                     24            |
 |            32                   1.392905                     48            |
 |            33                   1.430660                     24            |
 |            34                   1.452843                     72            |
 |            35                   1.460162                     30            |
 |            36                   1.489079                     72            |
 +----------------------------------------------------------------------------+
 | The b-vectors are chosen automatically                                     |
 | The following shells are used:   1                                         |
 +----------------------------------------------------------------------------+
 |                        Shell   # Nearest-Neighbours                        |
 |                        -----   --------------------                        |
 |                          1               8                                 |
 +----------------------------------------------------------------------------+
 | Completeness relation is fully satisfied [Eq. (B1), PRB 56, 12847 (1997)]  |
 +----------------------------------------------------------------------------+
 |                  b_k Vectors (Ang^-1) and Weights (Ang^2)                  |
 |                  ----------------------------------------                  |
 |            No.         b_k(x)      b_k(y)      b_k(z)        w_b           |
 |            ---        --------------------------------     --------        |
 |             1        -0.146016    0.146016   -0.146016     5.862841        |
 |             2         0.146016    0.146016    0.146016     5.862841        |
 |             3        -0.146016   -0.146016    0.146016     5.862841        |
 |             4        -0.146016    0.146016    0.146016     5.862841        |
 |             5         0.146016   -0.146016    0.146016     5.862841        |
 |             6        -0.146016   -0.146016   -0.146016     5.862841        |
 |             7         0.146016    0.146016   -0.146016     5.862841        |
 |             8         0.146016   -0.146016   -0.146016     5.862841        |
 +----------------------------------------------------------------------------+
 |                           b_k Directions (Ang^-1)                          |
 |                           -----------------------                          |
 |            No.           x           y           z                         |
 |            ---        --------------------------------                     |
 |             1        -0.146016    0.146016   -0.146016                     |
 |             2         0.146016    0.146016    0.146016                     |
 |             3        -0.146016   -0.146016    0.146016                     |
 |             4        -0.146016    0.146016    0.146016                     |
 +----------------------------------------------------------------------------+
  
 Time to get kmesh              1.710 (sec)
 *============================================================================*
 |                              MEMORY ESTIMATE                               |
 |         Maximum RAM allocated during each phase of the calculation         |
 *============================================================================*
 |                        Disentanglement          134.22 Mb                  |
 |                            Wannierise:          117.00 Mb                  |
 |                          plot_wannier:          117.00 Mb                  |
 *----------------------------------------------------------------------------*
  
 Starting a new Wannier90 calculation ...


 Reading overlaps from Si.mmn    :  Created on  2Mar2021 at 10: 2:48

 Reading projections from Si.amn :  Created on  2Mar2021 at 10: 2:12

 Time to read overlaps         20.738 (sec)

 *------------------------------- DISENTANGLE --------------------------------*
 +----------------------------------------------------------------------------+
 |                              Energy  Windows                               |
 |                              ---------------                               |
 |                   Outer:   -8.00000  to   50.00000  (eV)                   |
 |                   Inner:   -8.00000  to   30.00000  (eV)                   |
 +----------------------------------------------------------------------------+
   Number of target bands to extract:   26

                   Unitarised projection of Wannier functions                  
                   ------------------------------------------                  
   A_mn = <psi_m|g_n> --> S = A.A^+ --> U = S^-1/2.A
   In dis_project... done
   Using an inner window (linner = T)
   In dis_proj_froz... done

                   Extraction of optimally-connected subspace                  
                   ------------------------------------------                  
 +---------------------------------------------------------------------+<-- DIS
 |  Iter     Omega_I(i-1)      Omega_I(i)      Delta (frac.)    Time   |<-- DIS
 +---------------------------------------------------------------------+<-- DIS
       1      65.27610062      53.68418536       2.159E-01      0.00    <-- DIS
       2      52.89686285      48.26237811       9.603E-02      0.02    <-- DIS
       3      48.15306074      45.60613056       5.585E-02      0.04    <-- DIS
       4      45.43857263      43.98273198       3.310E-02      0.05    <-- DIS
       5      43.86429259      42.90476246       2.236E-02      0.07    <-- DIS
       6      42.80201452      42.10546514       1.654E-02      0.09    <-- DIS
       7      42.02226685      41.43153710       1.426E-02      0.11    <-- DIS
       8      41.36002756      40.83479988       1.286E-02      0.13    <-- DIS
       9      40.79001383      40.33928843       1.117E-02      0.14    <-- DIS
      10      40.30838009      39.91110998       9.954E-03      0.16    <-- DIS
      11      39.88733173      39.51111525       9.522E-03      0.18    <-- DIS
      12      39.49494678      39.13995528       9.070E-03      0.20    <-- DIS
      13      39.13301116      38.81946351       8.077E-03      0.21    <-- DIS
      14      38.81782028      38.54590840       7.054E-03      0.23    <-- DIS
      15      38.54298039      38.28340158       6.780E-03      0.25    <-- DIS
      16      38.27572507      38.01427207       6.878E-03      0.27    <-- DIS
      17      38.01601726      37.78049370       6.234E-03      0.29    <-- DIS
      18      37.78563808      37.57767803       5.534E-03      0.30    <-- DIS
      19      37.58303497      37.40009821       4.891E-03      0.32    <-- DIS
      20      37.40482205      37.24131341       4.391E-03      0.34    <-- DIS
      21      37.24555013      37.09940847       3.939E-03      0.36    <-- DIS
      22      37.10356995      36.97469421       3.486E-03      0.38    <-- DIS
      23      36.97882145      36.86660962       3.044E-03      0.40    <-- DIS
      24      36.87027686      36.77254072       2.658E-03      0.41    <-- DIS
      25      36.77562242      36.68962416       2.344E-03      0.43    <-- DIS
      26      36.69213624      36.61539124       2.096E-03      0.45    <-- DIS
      27      36.61737673      36.54751546       1.912E-03      0.47    <-- DIS
      28      36.54892802      36.48341927       1.796E-03      0.49    <-- DIS
      29      36.48429146      36.42083969       1.742E-03      0.51    <-- DIS
      30      36.42157935      36.35964722       1.703E-03      0.53    <-- DIS
      31      36.36087029      36.30217635       1.617E-03      0.55    <-- DIS
      32      36.30384115      36.24986983       1.489E-03      0.56    <-- DIS
      33      36.25154604      36.20241968       1.357E-03      0.58    <-- DIS
      34      36.20390090      36.15899737       1.242E-03      0.60    <-- DIS
      35      36.16023911      36.11845232       1.157E-03      0.62    <-- DIS
      36      36.11936856      36.07851886       1.132E-03      0.64    <-- DIS
      37      36.07884601      36.03450981       1.230E-03      0.66    <-- DIS
      38      36.03444629      35.98463340       1.384E-03      0.67    <-- DIS
      39      35.98582595      35.93739572       1.348E-03      0.69    <-- DIS
      40      35.93997688      35.89895965       1.143E-03      0.71    <-- DIS
      41      35.90154333      35.86848828       9.216E-04      0.73    <-- DIS
      42      35.87049511      35.84372115       7.470E-04      0.75    <-- DIS
      43      35.84516304      35.82299128       6.189E-04      0.77    <-- DIS
      44      35.82401252      35.80522520       5.247E-04      0.78    <-- DIS
      45      35.80594486      35.78971999       4.533E-04      0.80    <-- DIS
      46      35.79021999      35.77599507       3.976E-04      0.82    <-- DIS
      47      35.77632854      35.76370734       3.529E-04      0.84    <-- DIS
      48      35.76390972      35.75260257       3.163E-04      0.86    <-- DIS
      49      35.75269784      35.74248641       2.857E-04      0.88    <-- DIS
      50      35.74249152      35.73320646       2.598E-04      0.89    <-- DIS
      51      35.73313365      35.72464063       2.377E-04      0.91    <-- DIS
      52      35.72449907      35.71668939       2.187E-04      0.93    <-- DIS
      53      35.71648612      35.70927040       2.021E-04      0.95    <-- DIS
      54      35.70901099      35.70231470       1.876E-04      0.97    <-- DIS
      55      35.70200366      35.69576392       1.748E-04      0.99    <-- DIS
      56      35.69540498      35.68956822       1.635E-04      1.00    <-- DIS
      57      35.68916451      35.68368471       1.536E-04      1.02    <-- DIS
      58      35.68323894      35.67807624       1.447E-04      1.04    <-- DIS
      59      35.67759075      35.67271047       1.368E-04      1.06    <-- DIS
      60      35.67218732      35.66755906       1.298E-04      1.08    <-- DIS
      61      35.66700010      35.66259714       1.235E-04      1.10    <-- DIS
      62      35.66200401      35.65780273       1.178E-04      1.11    <-- DIS
      63      35.65717690      35.65315638       1.128E-04      1.13    <-- DIS
      64      35.65249920      35.64864081       1.082E-04      1.15    <-- DIS
      65      35.64795350      35.64424066       1.042E-04      1.17    <-- DIS
      66      35.64352434      35.63994221       1.005E-04      1.19    <-- DIS
      67      35.63919788      35.63573317       9.723E-05      1.21    <-- DIS
      68      35.63496178      35.63160256       9.428E-05      1.23    <-- DIS
      69      35.63080495      35.62754051       9.163E-05      1.25    <-- DIS
      70      35.62671747      35.62353815       8.925E-05      1.27    <-- DIS
      71      35.62269040      35.61958750       8.711E-05      1.29    <-- DIS
      72      35.61871570      35.61568138       8.520E-05      1.31    <-- DIS
      73      35.61478612      35.61181329       8.348E-05      1.34    <-- DIS
      74      35.61089513      35.60797739       8.194E-05      1.36    <-- DIS
      75      35.60703683      35.60416839       8.056E-05      1.38    <-- DIS
      76      35.60320589      35.60038150       7.934E-05      1.40    <-- DIS
      77      35.59939750      35.59661243       7.824E-05      1.42    <-- DIS
      78      35.59560730      35.59285725       7.726E-05      1.44    <-- DIS
      79      35.59183136      35.58911246       7.640E-05      1.46    <-- DIS
      80      35.58806612      35.58537485       7.563E-05      1.48    <-- DIS
      81      35.58430836      35.58164155       7.495E-05      1.50    <-- DIS
      82      35.58055519      35.57790998       7.435E-05      1.52    <-- DIS
      83      35.57680399      35.57417778       7.382E-05      1.54    <-- DIS
      84      35.57305240      35.57044288       7.336E-05      1.56    <-- DIS
      85      35.56929830      35.56670337       7.296E-05      1.58    <-- DIS
      86      35.56553981      35.56295759       7.261E-05      1.60    <-- DIS
      87      35.56177521      35.55920403       7.231E-05      1.62    <-- DIS
      88      35.55800302      35.55544137       7.205E-05      1.64    <-- DIS
      89      35.55422188      35.55166845       7.182E-05      1.67    <-- DIS
      90      35.55043064      35.54788425       7.163E-05      1.69    <-- DIS
      91      35.54662827      35.54408789       7.147E-05      1.71    <-- DIS
      92      35.54281389      35.54027864       7.133E-05      1.73    <-- DIS
      93      35.53898676      35.53645587       7.122E-05      1.75    <-- DIS
      94      35.53514627      35.53261908       7.112E-05      1.77    <-- DIS
      95      35.53129190      35.52876787       7.104E-05      1.79    <-- DIS
      96      35.52742327      35.52490197       7.097E-05      1.81    <-- DIS
      97      35.52354011      35.52102118       7.091E-05      1.83    <-- DIS
      98      35.51964223      35.51712542       7.086E-05      1.85    <-- DIS
      99      35.51572956      35.51321469       7.081E-05      1.87    <-- DIS
     100      35.51180211      35.50928909       7.077E-05      1.89    <-- DIS
     101      35.50786000      35.50534879       7.073E-05      1.91    <-- DIS
     102      35.50390340      35.50139405       7.068E-05      1.93    <-- DIS
     103      35.49993260      35.49742521       7.064E-05      1.95    <-- DIS
     104      35.49594795      35.49344269       7.058E-05      1.97    <-- DIS
     105      35.49194988      35.48944696       7.053E-05      1.99    <-- DIS
     106      35.48793889      35.48543858       7.046E-05      2.01    <-- DIS
     107      35.48391556      35.48141817       7.039E-05      2.03    <-- DIS
     108      35.47988052      35.47738641       7.030E-05      2.05    <-- DIS
     109      35.47583448      35.47334404       7.021E-05      2.07    <-- DIS
     110      35.47177820      35.46929185       7.010E-05      2.09    <-- DIS
     111      35.46771249      35.46523069       6.998E-05      2.11    <-- DIS
     112      35.46363823      35.46116146       6.984E-05      2.13    <-- DIS
     113      35.45955631      35.45708509       6.970E-05      2.15    <-- DIS
     114      35.45546772      35.45300256       6.953E-05      2.16    <-- DIS
     115      35.45137344      35.44891488       6.935E-05      2.18    <-- DIS
     116      35.44727450      35.44482311       6.916E-05      2.20    <-- DIS
     117      35.44317198      35.44072830       6.895E-05      2.22    <-- DIS
     118      35.43906695      35.43663155       6.873E-05      2.24    <-- DIS
     119      35.43496054      35.43253398       6.848E-05      2.26    <-- DIS
     120      35.43085387      35.42843672       6.823E-05      2.27    <-- DIS
     121      35.42674808      35.42434089       6.795E-05      2.29    <-- DIS
     122      35.42264432      35.42024765       6.766E-05      2.31    <-- DIS
     123      35.41854376      35.41615813       6.736E-05      2.33    <-- DIS
     124      35.41444753      35.41207347       6.704E-05      2.35    <-- DIS
     125      35.41035679      35.40799481       6.671E-05      2.37    <-- DIS
     126      35.40627268      35.40392326       6.636E-05      2.38    <-- DIS
     127      35.40219632      35.39985993       6.600E-05      2.40    <-- DIS
     128      35.39812882      35.39580590       6.563E-05      2.42    <-- DIS
     129      35.39407127      35.39176224       6.524E-05      2.44    <-- DIS
     130      35.39002473      35.38772998       6.485E-05      2.46    <-- DIS
     131      35.38599024      35.38371014       6.444E-05      2.48    <-- DIS
     132      35.38196880      35.37970368       6.402E-05      2.50    <-- DIS
     133      35.37796139      35.37571156       6.360E-05      2.52    <-- DIS
     134      35.37396894      35.37173468       6.317E-05      2.53    <-- DIS
     135      35.36999235      35.36777391       6.273E-05      2.55    <-- DIS
     136      35.36603249      35.36383008       6.228E-05      2.57    <-- DIS
     137      35.36209017      35.35990398       6.183E-05      2.59    <-- DIS
     138      35.35816617      35.35599636       6.137E-05      2.61    <-- DIS
     139      35.35426122      35.35210793       6.091E-05      2.63    <-- DIS
     140      35.35037601      35.34823934       6.045E-05      2.64    <-- DIS
     141      35.34651119      35.34439120       5.998E-05      2.66    <-- DIS
     142      35.34266735      35.34056410       5.951E-05      2.68    <-- DIS
     143      35.33884506      35.33675857       5.905E-05      2.70    <-- DIS
     144      35.33504481      35.33297507       5.858E-05      2.72    <-- DIS
     145      35.33126708      35.32921406       5.811E-05      2.74    <-- DIS
     146      35.32751228      35.32547594       5.765E-05      2.75    <-- DIS
     147      35.32378079      35.32176105       5.718E-05      2.77    <-- DIS
     148      35.32007295      35.31806972       5.672E-05      2.79    <-- DIS
     149      35.31638904      35.31440221       5.626E-05      2.81    <-- DIS
     150      35.31272933      35.31075877       5.581E-05      2.83    <-- DIS
     151      35.30909401      35.30713959       5.535E-05      2.85    <-- DIS
     152      35.30548327      35.30354482       5.491E-05      2.86    <-- DIS
     153      35.30189725      35.29997460       5.447E-05      2.88    <-- DIS
     154      35.29833604      35.29642902       5.403E-05      2.90    <-- DIS
     155      35.29479972      35.29290813       5.360E-05      2.92    <-- DIS
     156      35.29128832      35.28941196       5.317E-05      2.94    <-- DIS
     157      35.28780185      35.28594052       5.275E-05      2.96    <-- DIS
     158      35.28434028      35.28249377       5.234E-05      2.97    <-- DIS
     159      35.28090358      35.27907166       5.193E-05      2.99    <-- DIS
     160      35.27749166      35.27567412       5.152E-05      3.01    <-- DIS
     161      35.27410443      35.27230104       5.113E-05      3.03    <-- DIS
     162      35.27074177      35.26895231       5.074E-05      3.05    <-- DIS
     163      35.26740354      35.26562778       5.035E-05      3.07    <-- DIS
     164      35.26408959      35.26232730       4.998E-05      3.08    <-- DIS
     165      35.26079973      35.25905070       4.961E-05      3.10    <-- DIS
     166      35.25753378      35.25579779       4.924E-05      3.12    <-- DIS
     167      35.25429155      35.25256838       4.888E-05      3.14    <-- DIS
     168      35.25107281      35.24936225       4.853E-05      3.16    <-- DIS
     169      35.24787735      35.24617919       4.818E-05      3.18    <-- DIS
     170      35.24470493      35.24301898       4.784E-05      3.19    <-- DIS
     171      35.24155533      35.23988139       4.750E-05      3.21    <-- DIS
     172      35.23842831      35.23676618       4.717E-05      3.23    <-- DIS
     173      35.23532361      35.23367313       4.684E-05      3.25    <-- DIS
     174      35.23224100      35.23060201       4.652E-05      3.27    <-- DIS
     175      35.22918025      35.22755257       4.620E-05      3.28    <-- DIS
     176      35.22614110      35.22452458       4.589E-05      3.30    <-- DIS
     177      35.22312332      35.22151784       4.558E-05      3.32    <-- DIS
     178      35.22012670      35.21853211       4.528E-05      3.34    <-- DIS
     179      35.21715099      35.21556718       4.497E-05      3.36    <-- DIS
     180      35.21419599      35.21262286       4.468E-05      3.38    <-- DIS
     181      35.21126151      35.20969895       4.438E-05      3.40    <-- DIS
     182      35.20834733      35.20679527       4.408E-05      3.41    <-- DIS
     183      35.20545330      35.20391166       4.379E-05      3.43    <-- DIS
     184      35.20257923      35.20104796       4.350E-05      3.45    <-- DIS
     185      35.19972499      35.19820403       4.321E-05      3.47    <-- DIS
     186      35.19689044      35.19537976       4.292E-05      3.49    <-- DIS
     187      35.19407546      35.19257504       4.263E-05      3.51    <-- DIS
     188      35.19127996      35.18978979       4.235E-05      3.53    <-- DIS
     189      35.18850385      35.18702393       4.206E-05      3.65    <-- DIS
     190      35.18574708      35.18427742       4.177E-05      3.66    <-- DIS
     191      35.18300961      35.18155023       4.148E-05      3.68    <-- DIS
     192      35.18029142      35.17884234       4.119E-05      3.70    <-- DIS
     193      35.17759250      35.17615378       4.090E-05      3.72    <-- DIS
     194      35.17491288      35.17348457       4.061E-05      3.74    <-- DIS
     195      35.17225260      35.17083475       4.031E-05      3.75    <-- DIS
     196      35.16961172      35.16820441       4.002E-05      3.77    <-- DIS
     197      35.16699032      35.16559361       3.972E-05      3.79    <-- DIS
     198      35.16438849      35.16300247       3.942E-05      3.81    <-- DIS
     199      35.16180636      35.16043110       3.911E-05      3.82    <-- DIS
     200      35.15924404      35.15787965       3.881E-05      3.84    <-- DIS
     201      35.15670170      35.15534826       3.850E-05      3.86    <-- DIS
     202      35.15417948      35.15283709       3.819E-05      3.88    <-- DIS
     203      35.15167757      35.15034632       3.787E-05      3.90    <-- DIS
     204      35.14919615      35.14787614       3.756E-05      3.91    <-- DIS
     205      35.14673540      35.14542672       3.724E-05      3.93    <-- DIS
     206      35.14429554      35.14299828       3.691E-05      3.95    <-- DIS
     207      35.14187676      35.14059102       3.659E-05      3.97    <-- DIS
     208      35.13947928      35.13820513       3.626E-05      3.99    <-- DIS
     209      35.13710331      35.13584084       3.593E-05      4.00    <-- DIS
     210      35.13474905      35.13349833       3.560E-05      4.02    <-- DIS
     211      35.13241673      35.13117782       3.527E-05      4.04    <-- DIS
     212      35.13010653      35.12887949       3.493E-05      4.06    <-- DIS
     213      35.12781867      35.12660354       3.459E-05      4.08    <-- DIS
     214      35.12555333      35.12435016       3.425E-05      4.09    <-- DIS
     215      35.12331068      35.12211950       3.392E-05      4.11    <-- DIS
     216      35.12109091      35.11991173       3.358E-05      4.13    <-- DIS
     217      35.11889416      35.11772698       3.324E-05      4.15    <-- DIS
     218      35.11672058      35.11556540       3.290E-05      4.17    <-- DIS
     219      35.11457029      35.11342710       3.256E-05      4.18    <-- DIS
     220      35.11244340      35.11131216       3.222E-05      4.20    <-- DIS
     221      35.11034000      35.10922068       3.188E-05      4.22    <-- DIS
     222      35.10826017      35.10715270       3.155E-05      4.24    <-- DIS
     223      35.10620395      35.10510828       3.121E-05      4.25    <-- DIS
     224      35.10417137      35.10308742       3.088E-05      4.27    <-- DIS
     225      35.10216245      35.10109014       3.055E-05      4.29    <-- DIS
     226      35.10017719      35.09911641       3.022E-05      4.31    <-- DIS
     227      35.09821554      35.09716619       2.990E-05      4.33    <-- DIS
     228      35.09627746      35.09523942       2.958E-05      4.35    <-- DIS
     229      35.09436288      35.09333602       2.926E-05      4.36    <-- DIS
     230      35.09247171      35.09145589       2.895E-05      4.38    <-- DIS
     231      35.09060383      35.08959892       2.864E-05      4.40    <-- DIS
     232      35.08875913      35.08776496       2.833E-05      4.42    <-- DIS
     233      35.08693745      35.08595387       2.803E-05      4.44    <-- DIS
     234      35.08513862      35.08416547       2.774E-05      4.46    <-- DIS
     235      35.08336248      35.08239958       2.745E-05      4.48    <-- DIS
     236      35.08160881      35.08065599       2.716E-05      4.50    <-- DIS
     237      35.07987741      35.07893450       2.688E-05      4.51    <-- DIS
     238      35.07816805      35.07723487       2.660E-05      4.53    <-- DIS
     239      35.07648050      35.07555685       2.633E-05      4.55    <-- DIS
     240      35.07481450      35.07390021       2.607E-05      4.57    <-- DIS
     241      35.07316980      35.07226468       2.581E-05      4.59    <-- DIS
     242      35.07154613      35.07064999       2.555E-05      4.61    <-- DIS
     243      35.06994320      35.06905585       2.530E-05      4.62    <-- DIS
     244      35.06836073      35.06748200       2.506E-05      4.64    <-- DIS
     245      35.06679843      35.06592813       2.482E-05      4.66    <-- DIS
     246      35.06525601      35.06439395       2.459E-05      4.68    <-- DIS
     247      35.06373316      35.06287916       2.436E-05      4.70    <-- DIS
     248      35.06222957      35.06138345       2.413E-05      4.72    <-- DIS
     249      35.06074495      35.05990653       2.391E-05      4.73    <-- DIS
     250      35.05927897      35.05844809       2.370E-05      4.75    <-- DIS
     251      35.05783133      35.05700782       2.349E-05      4.77    <-- DIS
     252      35.05640171      35.05558540       2.329E-05      4.79    <-- DIS
     253      35.05498981      35.05418055       2.309E-05      4.81    <-- DIS
     254      35.05359532      35.05279294       2.289E-05      4.83    <-- DIS
     255      35.05221793      35.05142228       2.270E-05      4.84    <-- DIS
     256      35.05085734      35.05006827       2.251E-05      4.86    <-- DIS
     257      35.04951323      35.04873061       2.233E-05      4.88    <-- DIS
     258      35.04818532      35.04740899       2.215E-05      4.90    <-- DIS
     259      35.04687330      35.04610314       2.198E-05      4.92    <-- DIS
     260      35.04557688      35.04481276       2.180E-05      4.94    <-- DIS
     261      35.04429578      35.04353757       2.164E-05      4.96    <-- DIS
     262      35.04302971      35.04227730       2.147E-05      4.97    <-- DIS
     263      35.04177840      35.04103166       2.131E-05      4.99    <-- DIS
     264      35.04054156      35.03980039       2.115E-05      5.01    <-- DIS
     265      35.03931894      35.03858322       2.100E-05      5.03    <-- DIS
     266      35.03811027      35.03737990       2.085E-05      5.05    <-- DIS
     267      35.03691528      35.03619018       2.070E-05      5.07    <-- DIS
     268      35.03573374      35.03501380       2.055E-05      5.08    <-- DIS
     269      35.03456539      35.03385053       2.040E-05      5.10    <-- DIS
     270      35.03341000      35.03270012       2.026E-05      5.12    <-- DIS
     271      35.03226732      35.03156235       2.012E-05      5.14    <-- DIS
     272      35.03113713      35.03043699       1.999E-05      5.16    <-- DIS
     273      35.03001921      35.02932382       1.985E-05      5.18    <-- DIS
     274      35.02891334      35.02822263       1.972E-05      5.19    <-- DIS
     275      35.02781930      35.02713321       1.959E-05      5.21    <-- DIS
     276      35.02673689      35.02605536       1.946E-05      5.23    <-- DIS
     277      35.02566591      35.02498887       1.933E-05      5.25    <-- DIS
     278      35.02460616      35.02393355       1.920E-05      5.27    <-- DIS
     279      35.02355746      35.02288923       1.908E-05      5.29    <-- DIS
     280      35.02251961      35.02185571       1.896E-05      5.30    <-- DIS
     281      35.02149244      35.02083281       1.884E-05      5.32    <-- DIS
     282      35.02047577      35.01982037       1.871E-05      5.34    <-- DIS
     283      35.01946944      35.01881822       1.860E-05      5.36    <-- DIS
     284      35.01847327      35.01782620       1.848E-05      5.38    <-- DIS
     285      35.01748711      35.01684414       1.836E-05      5.40    <-- DIS
     286      35.01651080      35.01587190       1.825E-05      5.42    <-- DIS
     287      35.01554419      35.01490931       1.813E-05      5.44    <-- DIS
     288      35.01458714      35.01395625       1.802E-05      5.46    <-- DIS
     289      35.01363949      35.01301257       1.791E-05      5.47    <-- DIS
     290      35.01270112      35.01207812       1.779E-05      5.49    <-- DIS
     291      35.01177188      35.01115278       1.768E-05      5.51    <-- DIS
     292      35.01085165      35.01023642       1.757E-05      5.53    <-- DIS
     293      35.00994029      35.00932891       1.746E-05      5.55    <-- DIS
     294      35.00903769      35.00843013       1.735E-05      5.57    <-- DIS
     295      35.00814373      35.00753996       1.725E-05      5.58    <-- DIS
     296      35.00725828      35.00665828       1.714E-05      5.60    <-- DIS
     297      35.00638123      35.00578499       1.703E-05      5.62    <-- DIS
     298      35.00551248      35.00491996       1.693E-05      5.64    <-- DIS
     299      35.00465192      35.00406311       1.682E-05      5.66    <-- DIS
     300      35.00379944      35.00321432       1.672E-05      5.68    <-- DIS
     301      35.00295494      35.00237349       1.661E-05      5.70    <-- DIS
     302      35.00211832      35.00154052       1.651E-05      5.71    <-- DIS
     303      35.00128949      35.00071532       1.640E-05      5.73    <-- DIS
     304      35.00046834      34.99989780       1.630E-05      5.75    <-- DIS
     305      34.99965480      34.99908786       1.620E-05      5.77    <-- DIS
     306      34.99884877      34.99828542       1.610E-05      5.79    <-- DIS
     307      34.99805017      34.99749039       1.599E-05      5.80    <-- DIS
     308      34.99725890      34.99670268       1.589E-05      5.82    <-- DIS
     309      34.99647490      34.99592222       1.579E-05      5.84    <-- DIS
     310      34.99569807      34.99514892       1.569E-05      5.86    <-- DIS
     311      34.99492834      34.99438271       1.559E-05      5.88    <-- DIS
     312      34.99416563      34.99362351       1.549E-05      5.90    <-- DIS
     313      34.99340987      34.99287125       1.539E-05      5.92    <-- DIS
     314      34.99266099      34.99212584       1.529E-05      5.93    <-- DIS
     315      34.99191891      34.99138723       1.519E-05      5.95    <-- DIS
     316      34.99118357      34.99065534       1.510E-05      5.97    <-- DIS
     317      34.99045489      34.98993011       1.500E-05      5.99    <-- DIS
     318      34.98973280      34.98921146       1.490E-05      6.01    <-- DIS
     319      34.98901726      34.98849934       1.480E-05      6.03    <-- DIS
     320      34.98830818      34.98779367       1.471E-05      6.04    <-- DIS
     321      34.98760551      34.98709440       1.461E-05      6.06    <-- DIS
     322      34.98690918      34.98640147       1.451E-05      6.08    <-- DIS
     323      34.98621914      34.98571480       1.442E-05      6.10    <-- DIS
     324      34.98553533      34.98503436       1.432E-05      6.12    <-- DIS
     325      34.98485768      34.98436006       1.422E-05      6.14    <-- DIS
     326      34.98418614      34.98369187       1.413E-05      6.15    <-- DIS
     327      34.98352066      34.98302973       1.403E-05      6.17    <-- DIS
     328      34.98286118      34.98237357       1.394E-05      6.19    <-- DIS
     329      34.98220765      34.98172335       1.384E-05      6.21    <-- DIS
     330      34.98156000      34.98107901       1.375E-05      6.23    <-- DIS
     331      34.98091820      34.98044050       1.366E-05      6.24    <-- DIS
     332      34.98028219      34.97980777       1.356E-05      6.26    <-- DIS
     333      34.97965192      34.97918077       1.347E-05      6.28    <-- DIS
     334      34.97902734      34.97855944       1.338E-05      6.30    <-- DIS
     335      34.97840839      34.97794375       1.328E-05      6.32    <-- DIS
     336      34.97779504      34.97733363       1.319E-05      6.34    <-- DIS
     337      34.97718723      34.97672905       1.310E-05      6.36    <-- DIS
     338      34.97658492      34.97612996       1.301E-05      6.37    <-- DIS
     339      34.97598806      34.97553630       1.292E-05      6.39    <-- DIS
     340      34.97539661      34.97494804       1.283E-05      6.41    <-- DIS
     341      34.97481052      34.97436512       1.273E-05      6.43    <-- DIS
     342      34.97422974      34.97378751       1.264E-05      6.45    <-- DIS
     343      34.97365423      34.97321516       1.255E-05      6.47    <-- DIS
     344      34.97308395      34.97264803       1.246E-05      6.49    <-- DIS
     345      34.97251886      34.97208607       1.238E-05      6.51    <-- DIS
     346      34.97195891      34.97152924       1.229E-05      6.53    <-- DIS
     347      34.97140405      34.97097750       1.220E-05      6.55    <-- DIS
     348      34.97085426      34.97043081       1.211E-05      6.56    <-- DIS
     349      34.97030949      34.96988912       1.202E-05      6.58    <-- DIS
     350      34.96976969      34.96935239       1.193E-05      6.60    <-- DIS
     351      34.96923483      34.96882059       1.185E-05      6.62    <-- DIS
     352      34.96870487      34.96829368       1.176E-05      6.64    <-- DIS
     353      34.96817976      34.96777161       1.167E-05      6.66    <-- DIS
     354      34.96765948      34.96725435       1.159E-05      6.67    <-- DIS
     355      34.96714397      34.96674185       1.150E-05      6.69    <-- DIS
     356      34.96663320      34.96623408       1.141E-05      6.71    <-- DIS
     357      34.96612714      34.96573100       1.133E-05      6.73    <-- DIS
     358      34.96562574      34.96523258       1.124E-05      6.75    <-- DIS
     359      34.96512897      34.96473876       1.116E-05      6.77    <-- DIS
     360      34.96463679      34.96424953       1.108E-05      6.78    <-- DIS
     361      34.96414917      34.96376484       1.099E-05      6.80    <-- DIS
     362      34.96366606      34.96328465       1.091E-05      6.82    <-- DIS
     363      34.96318743      34.96280893       1.083E-05      6.84    <-- DIS
     364      34.96271325      34.96233764       1.074E-05      6.86    <-- DIS
     365      34.96224348      34.96187074       1.066E-05      6.88    <-- DIS
     366      34.96177808      34.96140821       1.058E-05      6.89    <-- DIS
     367      34.96131703      34.96095000       1.050E-05      6.91    <-- DIS
     368      34.96086027      34.96049608       1.042E-05      6.93    <-- DIS
     369      34.96040778      34.96004642       1.034E-05      6.95    <-- DIS
     370      34.95995953      34.95960097       1.026E-05      6.97    <-- DIS
     371      34.95951548      34.95915971       1.018E-05      6.98    <-- DIS
     372      34.95907560      34.95872261       1.010E-05      7.00    <-- DIS
     373      34.95863984      34.95828962       1.002E-05      7.02    <-- DIS
     374      34.95820819      34.95786072       9.940E-06      7.04    <-- DIS
     375      34.95778060      34.95743586       9.862E-06      7.06    <-- DIS
     376      34.95735704      34.95701503       9.784E-06      7.08    <-- DIS
     377      34.95693748      34.95659818       9.707E-06      7.09    <-- DIS
     378      34.95652189      34.95618528       9.630E-06      7.11    <-- DIS
     379      34.95611023      34.95577630       9.553E-06      7.13    <-- DIS
     380      34.95570248      34.95537120       9.477E-06      7.15    <-- DIS
     381      34.95529859      34.95496996       9.401E-06      7.17    <-- DIS
     382      34.95489854      34.95457254       9.326E-06      7.19    <-- DIS
     383      34.95450229      34.95417892       9.251E-06      7.20    <-- DIS
     384      34.95410982      34.95378904       9.177E-06      7.22    <-- DIS
     385      34.95372109      34.95340290       9.103E-06      7.24    <-- DIS
     386      34.95333607      34.95302045       9.030E-06      7.26    <-- DIS
     387      34.95295473      34.95264167       8.957E-06      7.28    <-- DIS
     388      34.95257704      34.95226652       8.884E-06      7.30    <-- DIS
     389      34.95220296      34.95189497       8.812E-06      7.31    <-- DIS
     390      34.95183247      34.95152699       8.740E-06      7.33    <-- DIS
     391      34.95146554      34.95116255       8.669E-06      7.35    <-- DIS
     392      34.95110213      34.95080163       8.598E-06      7.37    <-- DIS
     393      34.95074222      34.95044418       8.528E-06      7.39    <-- DIS
     394      34.95038578      34.95009019       8.458E-06      7.41    <-- DIS
     395      34.95003277      34.94973961       8.388E-06      7.43    <-- DIS
     396      34.94968317      34.94939243       8.319E-06      7.45    <-- DIS
     397      34.94933694      34.94904860       8.250E-06      7.47    <-- DIS
     398      34.94899406      34.94870811       8.182E-06      7.49    <-- DIS
     399      34.94865450      34.94837092       8.114E-06      7.50    <-- DIS
     400      34.94831823      34.94803701       8.047E-06      7.52    <-- DIS
     401      34.94798522      34.94770634       7.980E-06      7.54    <-- DIS
     402      34.94765544      34.94737888       7.914E-06      7.56    <-- DIS
     403      34.94732887      34.94705461       7.848E-06      7.58    <-- DIS
     404      34.94700547      34.94673350       7.782E-06      7.60    <-- DIS
     405      34.94668521      34.94641552       7.717E-06      7.61    <-- DIS
     406      34.94636807      34.94610065       7.653E-06      7.63    <-- DIS
     407      34.94605403      34.94578885       7.588E-06      7.65    <-- DIS
     408      34.94574304      34.94548009       7.525E-06      7.67    <-- DIS
     409      34.94543509      34.94517435       7.461E-06      7.69    <-- DIS
     410      34.94513015      34.94487161       7.399E-06      7.70    <-- DIS
     411      34.94482819      34.94457183       7.336E-06      7.72    <-- DIS
     412      34.94452918      34.94427498       7.274E-06      7.74    <-- DIS
     413      34.94423309      34.94398105       7.213E-06      7.76    <-- DIS
     414      34.94393991      34.94369000       7.152E-06      7.78    <-- DIS
     415      34.94364959      34.94340181       7.091E-06      7.80    <-- DIS
     416      34.94336213      34.94311644       7.031E-06      7.81    <-- DIS
     417      34.94307748      34.94283388       6.971E-06      7.83    <-- DIS
     418      34.94279562      34.94255410       6.912E-06      7.85    <-- DIS
     419      34.94251653      34.94227706       6.853E-06      7.87    <-- DIS
     420      34.94224019      34.94200276       6.795E-06      7.89    <-- DIS
     421      34.94196655      34.94173115       6.737E-06      7.91    <-- DIS
     422      34.94169561      34.94146221       6.680E-06      7.92    <-- DIS
     423      34.94142733      34.94119593       6.623E-06      7.94    <-- DIS
     424      34.94116169      34.94093226       6.566E-06      7.96    <-- DIS
     425      34.94089866      34.94067120       6.510E-06      7.98    <-- DIS
     426      34.94063822      34.94041271       6.454E-06      8.00    <-- DIS
     427      34.94038035      34.94015676       6.399E-06      8.02    <-- DIS
     428      34.94012501      34.93990334       6.344E-06      8.03    <-- DIS
     429      34.93987219      34.93965242       6.290E-06      8.05    <-- DIS
     430      34.93962186      34.93940398       6.236E-06      8.07    <-- DIS
     431      34.93937399      34.93915798       6.182E-06      8.09    <-- DIS
     432      34.93912857      34.93891441       6.129E-06      8.11    <-- DIS
     433      34.93888556      34.93867325       6.077E-06      8.13    <-- DIS
     434      34.93864495      34.93843446       6.025E-06      8.15    <-- DIS
     435      34.93840671      34.93819803       5.973E-06      8.16    <-- DIS
     436      34.93817081      34.93796393       5.922E-06      8.18    <-- DIS
     437      34.93793724      34.93773214       5.871E-06      8.20    <-- DIS
     438      34.93770597      34.93750263       5.820E-06      8.22    <-- DIS
     439      34.93747698      34.93727539       5.770E-06      8.24    <-- DIS
     440      34.93725024      34.93705039       5.720E-06      8.26    <-- DIS
     441      34.93702574      34.93682760       5.671E-06      8.27    <-- DIS
     442      34.93680344      34.93660701       5.623E-06      8.29    <-- DIS
     443      34.93658334      34.93638860       5.574E-06      8.31    <-- DIS
     444      34.93636540      34.93617233       5.526E-06      8.33    <-- DIS
     445      34.93614960      34.93595819       5.479E-06      8.35    <-- DIS
     446      34.93593592      34.93574617       5.432E-06      8.37    <-- DIS
     447      34.93572435      34.93553622       5.385E-06      8.39    <-- DIS
     448      34.93551485      34.93532834       5.339E-06      8.40    <-- DIS
     449      34.93530741      34.93512251       5.293E-06      8.42    <-- DIS
     450      34.93510200      34.93491869       5.247E-06      8.44    <-- DIS
     451      34.93489862      34.93471688       5.202E-06      8.46    <-- DIS
     452      34.93469722      34.93451704       5.158E-06      8.48    <-- DIS
     453      34.93449780      34.93431917       5.113E-06      8.50    <-- DIS
     454      34.93430033      34.93412323       5.069E-06      8.52    <-- DIS
     455      34.93410479      34.93392922       5.026E-06      8.54    <-- DIS
     456      34.93391117      34.93373710       4.983E-06      8.55    <-- DIS
     457      34.93371944      34.93354686       4.940E-06      8.57    <-- DIS
     458      34.93352958      34.93335848       4.898E-06      8.59    <-- DIS
     459      34.93334157      34.93317193       4.856E-06      8.61    <-- DIS
     460      34.93315540      34.93298721       4.815E-06      8.63    <-- DIS
     461      34.93297104      34.93280429       4.773E-06      8.64    <-- DIS
     462      34.93278847      34.93262315       4.733E-06      8.68    <-- DIS
     463      34.93260768      34.93244377       4.692E-06      8.70    <-- DIS
     464      34.93242865      34.93226613       4.652E-06      8.72    <-- DIS
     465      34.93225135      34.93209022       4.613E-06      8.73    <-- DIS
     466      34.93207578      34.93191601       4.574E-06      8.75    <-- DIS
     467      34.93190190      34.93174349       4.535E-06      8.77    <-- DIS
     468      34.93172970      34.93157264       4.496E-06      8.79    <-- DIS
     469      34.93155917      34.93140344       4.458E-06      8.81    <-- DIS
     470      34.93139029      34.93123588       4.420E-06      8.82    <-- DIS
     471      34.93122303      34.93106993       4.383E-06      8.84    <-- DIS
     472      34.93105738      34.93090557       4.346E-06      8.86    <-- DIS
     473      34.93089333      34.93074280       4.309E-06      8.88    <-- DIS
     474      34.93073085      34.93058159       4.273E-06      8.89    <-- DIS
     475      34.93056993      34.93042193       4.237E-06      8.91    <-- DIS
     476      34.93041055      34.93026379       4.201E-06      8.93    <-- DIS
     477      34.93025269      34.93010717       4.166E-06      8.95    <-- DIS
     478      34.93009634      34.92995204       4.131E-06      8.97    <-- DIS
     479      34.92994148      34.92979839       4.097E-06      8.98    <-- DIS
     480      34.92978810      34.92964621       4.062E-06      9.00    <-- DIS
     481      34.92963618      34.92949547       4.028E-06      9.02    <-- DIS
     482      34.92948569      34.92934615       3.995E-06      9.04    <-- DIS
     483      34.92933663      34.92919826       3.962E-06      9.05    <-- DIS
     484      34.92918899      34.92905176       3.929E-06      9.07    <-- DIS
     485      34.92904273      34.92890664       3.896E-06      9.09    <-- DIS
     486      34.92889786      34.92876289       3.864E-06      9.11    <-- DIS
     487      34.92875434      34.92862050       3.832E-06      9.13    <-- DIS
     488      34.92861218      34.92847944       3.800E-06      9.14    <-- DIS
     489      34.92847134      34.92833970       3.769E-06      9.16    <-- DIS
     490      34.92833183      34.92820126       3.738E-06      9.18    <-- DIS
     491      34.92819362      34.92806412       3.707E-06      9.20    <-- DIS
     492      34.92805669      34.92792826       3.677E-06      9.22    <-- DIS
     493      34.92792104      34.92779366       3.647E-06      9.23    <-- DIS
     494      34.92778665      34.92766031       3.617E-06      9.25    <-- DIS
     495      34.92765350      34.92752819       3.588E-06      9.27    <-- DIS
     496      34.92752159      34.92739729       3.559E-06      9.29    <-- DIS
     497      34.92739089      34.92726759       3.530E-06      9.30    <-- DIS
     498      34.92726139      34.92713909       3.501E-06      9.32    <-- DIS
     499      34.92713308      34.92701177       3.473E-06      9.34    <-- DIS
     500      34.92700595      34.92688561       3.445E-06      9.36    <-- DIS
     501      34.92687998      34.92676061       3.418E-06      9.38    <-- DIS
     502      34.92675516      34.92663674       3.390E-06      9.39    <-- DIS
     503      34.92663147      34.92651400       3.363E-06      9.41    <-- DIS
     504      34.92650890      34.92639237       3.336E-06      9.43    <-- DIS
     505      34.92638745      34.92627184       3.310E-06      9.45    <-- DIS
     506      34.92626709      34.92615240       3.284E-06      9.47    <-- DIS
     507      34.92614781      34.92603403       3.258E-06      9.49    <-- DIS
     508      34.92602961      34.92591672       3.232E-06      9.51    <-- DIS
     509      34.92591246      34.92580046       3.207E-06      9.52    <-- DIS
     510      34.92579636      34.92568524       3.182E-06      9.54    <-- DIS
     511      34.92568129      34.92557105       3.157E-06      9.56    <-- DIS
     512      34.92556725      34.92545786       3.132E-06      9.58    <-- DIS
     513      34.92545422      34.92534568       3.108E-06      9.60    <-- DIS
     514      34.92534218      34.92523449       3.084E-06      9.61    <-- DIS
     515      34.92523114      34.92512427       3.060E-06      9.63    <-- DIS
     516      34.92512107      34.92501502       3.036E-06      9.65    <-- DIS
     517      34.92501196      34.92490673       3.013E-06      9.67    <-- DIS
     518      34.92490380      34.92479938       2.990E-06      9.69    <-- DIS
     519      34.92479659      34.92469297       2.967E-06      9.70    <-- DIS
     520      34.92469030      34.92458747       2.944E-06      9.72    <-- DIS
     521      34.92458494      34.92448289       2.922E-06      9.74    <-- DIS
     522      34.92448049      34.92437920       2.900E-06      9.76    <-- DIS
     523      34.92437693      34.92427641       2.878E-06      9.78    <-- DIS
     524      34.92427426      34.92417449       2.857E-06      9.79    <-- DIS
     525      34.92417246      34.92407345       2.835E-06      9.81    <-- DIS
     526      34.92407154      34.92397326       2.814E-06      9.83    <-- DIS
     527      34.92397146      34.92387392       2.793E-06      9.85    <-- DIS
     528      34.92387224      34.92377541       2.772E-06      9.86    <-- DIS
     529      34.92377385      34.92367774       2.752E-06      9.88    <-- DIS
     530      34.92367629      34.92358088       2.732E-06      9.90    <-- DIS
     531      34.92357954      34.92348484       2.712E-06      9.92    <-- DIS
     532      34.92348360      34.92338959       2.692E-06      9.94    <-- DIS
     533      34.92338845      34.92329513       2.672E-06      9.95    <-- DIS
     534      34.92329409      34.92320144       2.653E-06      9.97    <-- DIS
     535      34.92320052      34.92310853       2.634E-06      9.99    <-- DIS
     536      34.92310770      34.92301639       2.615E-06     10.01    <-- DIS
     537      34.92301565      34.92292499       2.596E-06     10.03    <-- DIS
     538      34.92292435      34.92283433       2.578E-06     10.04    <-- DIS
     539      34.92283379      34.92274441       2.559E-06     10.06    <-- DIS
     540      34.92274396      34.92265522       2.541E-06     10.08    <-- DIS
     541      34.92265486      34.92256674       2.523E-06     10.10    <-- DIS
     542      34.92256647      34.92247897       2.506E-06     10.12    <-- DIS
     543      34.92247879      34.92239190       2.488E-06     10.13    <-- DIS
     544      34.92239180      34.92230552       2.471E-06     10.15    <-- DIS
     545      34.92230551      34.92221982       2.454E-06     10.17    <-- DIS
     546      34.92221989      34.92213480       2.437E-06     10.19    <-- DIS
     547      34.92213495      34.92205044       2.420E-06     10.20    <-- DIS
     548      34.92205067      34.92196674       2.403E-06     10.22    <-- DIS
     549      34.92196705      34.92188369       2.387E-06     10.24    <-- DIS
     550      34.92188408      34.92180128       2.371E-06     10.26    <-- DIS
     551      34.92180175      34.92171951       2.355E-06     10.28    <-- DIS
     552      34.92172005      34.92163836       2.339E-06     10.29    <-- DIS
     553      34.92163897      34.92155784       2.323E-06     10.31    <-- DIS
     554      34.92155852      34.92147792       2.308E-06     10.33    <-- DIS
     555      34.92147867      34.92139861       2.293E-06     10.35    <-- DIS
     556      34.92139943      34.92131989       2.278E-06     10.36    <-- DIS
     557      34.92132078      34.92124177       2.263E-06     10.38    <-- DIS
     558      34.92124272      34.92116422       2.248E-06     10.40    <-- DIS
     559      34.92116524      34.92108726       2.233E-06     10.42    <-- DIS
     560      34.92108834      34.92101086       2.219E-06     10.44    <-- DIS
     561      34.92101200      34.92093502       2.204E-06     10.46    <-- DIS
     562      34.92093622      34.92085973       2.190E-06     10.48    <-- DIS
     563      34.92086099      34.92078499       2.176E-06     10.49    <-- DIS
     564      34.92078632      34.92071079       2.163E-06     10.51    <-- DIS
     565      34.92071218      34.92063713       2.149E-06     10.53    <-- DIS
     566      34.92063857      34.92056399       2.136E-06     10.55    <-- DIS
     567      34.92056549      34.92049138       2.122E-06     10.57    <-- DIS
     568      34.92049293      34.92041928       2.109E-06     10.58    <-- DIS
     569      34.92042088      34.92034769       2.096E-06     10.60    <-- DIS
     570      34.92034934      34.92027659       2.083E-06     10.62    <-- DIS
     571      34.92027830      34.92020600       2.070E-06     10.64    <-- DIS
     572      34.92020776      34.92013589       2.058E-06     10.66    <-- DIS
     573      34.92013770      34.92006627       2.046E-06     10.67    <-- DIS
     574      34.92006813      34.91999713       2.033E-06     10.69    <-- DIS
     575      34.91999903      34.91992845       2.021E-06     10.71    <-- DIS
     576      34.91993041      34.91986025       2.009E-06     10.73    <-- DIS
     577      34.91986224      34.91979250       1.997E-06     10.75    <-- DIS
     578      34.91979454      34.91972521       1.986E-06     10.76    <-- DIS
     579      34.91972729      34.91965836       1.974E-06     10.78    <-- DIS
     580      34.91966049      34.91959196       1.963E-06     10.80    <-- DIS
     581      34.91959413      34.91952600       1.951E-06     10.82    <-- DIS
     582      34.91952821      34.91946046       1.940E-06     10.84    <-- DIS
     583      34.91946272      34.91939536       1.929E-06     10.85    <-- DIS
     584      34.91939765      34.91933067       1.918E-06     10.87    <-- DIS
     585      34.91933301      34.91926640       1.907E-06     10.89    <-- DIS
     586      34.91926878      34.91920255       1.897E-06     10.91    <-- DIS
     587      34.91920496      34.91913909       1.886E-06     10.92    <-- DIS
     588      34.91914155      34.91907604       1.876E-06     10.94    <-- DIS
     589      34.91907853      34.91901339       1.866E-06     10.96    <-- DIS
     590      34.91901591      34.91895112       1.855E-06     10.98    <-- DIS
     591      34.91895368      34.91888924       1.845E-06     11.00    <-- DIS
     592      34.91889184      34.91882774       1.836E-06     11.01    <-- DIS
     593      34.91883037      34.91876662       1.826E-06     11.03    <-- DIS
     594      34.91876928      34.91870587       1.816E-06     11.05    <-- DIS
     595      34.91870856      34.91864548       1.806E-06     11.07    <-- DIS
     596      34.91864821      34.91858546       1.797E-06     11.09    <-- DIS
     597      34.91858822      34.91852580       1.788E-06     11.10    <-- DIS
     598      34.91852859      34.91846648       1.779E-06     11.12    <-- DIS
     599      34.91846930      34.91840752       1.769E-06     11.14    <-- DIS
     600      34.91841037      34.91834890       1.760E-06     11.16    <-- DIS
     601      34.91835178      34.91829062       1.752E-06     11.18    <-- DIS
     602      34.91829352      34.91823267       1.743E-06     11.19    <-- DIS
     603      34.91823561      34.91817506       1.734E-06     11.21    <-- DIS
     604      34.91817802      34.91811777       1.726E-06     11.23    <-- DIS
     605      34.91812076      34.91806080       1.717E-06     11.25    <-- DIS
     606      34.91806382      34.91800415       1.709E-06     11.26    <-- DIS
     607      34.91800720      34.91794782       1.701E-06     11.28    <-- DIS
     608      34.91795089      34.91789180       1.692E-06     11.30    <-- DIS
     609      34.91789490      34.91783608       1.684E-06     11.32    <-- DIS
     610      34.91783920      34.91778067       1.676E-06     11.34    <-- DIS
     611      34.91778381      34.91772555       1.669E-06     11.35    <-- DIS
     612      34.91772872      34.91767073       1.661E-06     11.37    <-- DIS
     613      34.91767393      34.91761620       1.653E-06     11.39    <-- DIS
     614      34.91761942      34.91756196       1.646E-06     11.41    <-- DIS
     615      34.91756520      34.91750800       1.638E-06     11.43    <-- DIS
     616      34.91751126      34.91745432       1.631E-06     11.45    <-- DIS
     617      34.91745761      34.91740092       1.623E-06     11.47    <-- DIS
     618      34.91740422      34.91734779       1.616E-06     11.48    <-- DIS
     619      34.91735111      34.91729493       1.609E-06     11.50    <-- DIS
     620      34.91729827      34.91724233       1.602E-06     11.52    <-- DIS
     621      34.91724570      34.91719000       1.595E-06     11.54    <-- DIS
     622      34.91719338      34.91713792       1.588E-06     11.56    <-- DIS
     623      34.91714133      34.91708610       1.582E-06     11.57    <-- DIS
     624      34.91708953      34.91703453       1.575E-06     11.59    <-- DIS
     625      34.91703798      34.91698321       1.568E-06     11.61    <-- DIS
     626      34.91698668      34.91693214       1.562E-06     11.63    <-- DIS
     627      34.91693562      34.91688130       1.556E-06     11.65    <-- DIS
     628      34.91688480      34.91683071       1.549E-06     11.66    <-- DIS
     629      34.91683423      34.91678035       1.543E-06     11.68    <-- DIS
     630      34.91678389      34.91673023       1.537E-06     11.70    <-- DIS
     631      34.91673378      34.91668033       1.531E-06     11.72    <-- DIS
     632      34.91668390      34.91663066       1.525E-06     11.74    <-- DIS
     633      34.91663425      34.91658121       1.519E-06     11.75    <-- DIS
     634      34.91658482      34.91653199       1.513E-06     11.77    <-- DIS
     635      34.91653561      34.91648298       1.507E-06     11.79    <-- DIS
     636      34.91648661      34.91643418       1.502E-06     11.81    <-- DIS
     637      34.91643784      34.91638560       1.496E-06     11.83    <-- DIS
     638      34.91638927      34.91633723       1.490E-06     11.84    <-- DIS
     639      34.91634091      34.91628906       1.485E-06     11.86    <-- DIS
     640      34.91629276      34.91624110       1.480E-06     11.88    <-- DIS
     641      34.91624481      34.91619333       1.474E-06     11.90    <-- DIS
     642      34.91619706      34.91614577       1.469E-06     11.92    <-- DIS
     643      34.91614951      34.91609839       1.464E-06     11.93    <-- DIS
     644      34.91610215      34.91605122       1.459E-06     11.95    <-- DIS
     645      34.91605499      34.91600423       1.454E-06     11.97    <-- DIS
     646      34.91600801      34.91595742       1.449E-06     11.99    <-- DIS
     647      34.91596122      34.91591081       1.444E-06     12.00    <-- DIS
     648      34.91591462      34.91586437       1.439E-06     12.02    <-- DIS
     649      34.91586820      34.91581812       1.434E-06     12.04    <-- DIS
     650      34.91582195      34.91577204       1.430E-06     12.06    <-- DIS
     651      34.91577589      34.91572613       1.425E-06     12.08    <-- DIS
     652      34.91573000      34.91568040       1.420E-06     12.09    <-- DIS
     653      34.91568428      34.91563484       1.416E-06     12.11    <-- DIS
     654      34.91563873      34.91558944       1.412E-06     12.13    <-- DIS
     655      34.91559334      34.91554421       1.407E-06     12.15    <-- DIS
     656      34.91554813      34.91549914       1.403E-06     12.16    <-- DIS
     657      34.91550307      34.91545424       1.399E-06     12.18    <-- DIS
     658      34.91545818      34.91540949       1.394E-06     12.20    <-- DIS
     659      34.91541344      34.91536489       1.390E-06     12.22    <-- DIS
     660      34.91536886      34.91532045       1.386E-06     12.24    <-- DIS
     661      34.91532443      34.91527617       1.382E-06     12.25    <-- DIS
     662      34.91528015      34.91523203       1.378E-06     12.27    <-- DIS
     663      34.91523602      34.91518803       1.374E-06     12.29    <-- DIS
     664      34.91519204      34.91514419       1.371E-06     12.31    <-- DIS
     665      34.91514820      34.91510048       1.367E-06     12.33    <-- DIS
     666      34.91510451      34.91505692       1.363E-06     12.34    <-- DIS
     667      34.91506096      34.91501349       1.359E-06     12.36    <-- DIS
     668      34.91501754      34.91497020       1.356E-06     12.38    <-- DIS
     669      34.91497427      34.91492705       1.352E-06     12.40    <-- DIS
     670      34.91493112      34.91488403       1.349E-06     12.42    <-- DIS
     671      34.91488811      34.91484114       1.345E-06     12.44    <-- DIS
     672      34.91484523      34.91479837       1.342E-06     12.46    <-- DIS
     673      34.91480248      34.91475574       1.339E-06     12.47    <-- DIS
     674      34.91475985      34.91471323       1.335E-06     12.49    <-- DIS
     675      34.91471735      34.91467084       1.332E-06     12.51    <-- DIS
     676      34.91467497      34.91462857       1.329E-06     12.53    <-- DIS
     677      34.91463272      34.91458642       1.326E-06     12.55    <-- DIS
     678      34.91459058      34.91454439       1.323E-06     12.56    <-- DIS
     679      34.91454856      34.91450248       1.320E-06     12.58    <-- DIS
     680      34.91450665      34.91446068       1.317E-06     12.60    <-- DIS
     681      34.91446486      34.91441899       1.314E-06     12.62    <-- DIS
     682      34.91442318      34.91437741       1.311E-06     12.64    <-- DIS
     683      34.91438161      34.91433594       1.308E-06     12.65    <-- DIS
     684      34.91434015      34.91429457       1.305E-06     12.67    <-- DIS
     685      34.91429880      34.91425332       1.303E-06     12.69    <-- DIS
     686      34.91425755      34.91421216       1.300E-06     12.71    <-- DIS
     687      34.91421640      34.91417111       1.297E-06     12.72    <-- DIS
     688      34.91417536      34.91413015       1.295E-06     12.74    <-- DIS
     689      34.91413441      34.91408930       1.292E-06     12.76    <-- DIS
     690      34.91409357      34.91404854       1.290E-06     12.78    <-- DIS
     691      34.91405282      34.91400787       1.287E-06     12.80    <-- DIS
     692      34.91401216      34.91396730       1.285E-06     12.81    <-- DIS
     693      34.91397160      34.91392682       1.283E-06     12.83    <-- DIS
     694      34.91393114      34.91388644       1.280E-06     12.85    <-- DIS
     695      34.91389076      34.91384614       1.278E-06     12.87    <-- DIS
     696      34.91385047      34.91380593       1.276E-06     12.89    <-- DIS
     697      34.91381027      34.91376580       1.274E-06     12.90    <-- DIS
     698      34.91377015      34.91372576       1.271E-06     12.92    <-- DIS
     699      34.91373012      34.91368580       1.269E-06     12.94    <-- DIS
     700      34.91369017      34.91364593       1.267E-06     12.96    <-- DIS
     701      34.91365030      34.91360613       1.265E-06     12.98    <-- DIS
     702      34.91361052      34.91356641       1.263E-06     12.99    <-- DIS
     703      34.91357081      34.91352677       1.261E-06     13.01    <-- DIS
     704      34.91353118      34.91348721       1.259E-06     13.03    <-- DIS
     705      34.91349162      34.91344771       1.258E-06     13.05    <-- DIS
     706      34.91345214      34.91340830       1.256E-06     13.07    <-- DIS
     707      34.91341273      34.91336895       1.254E-06     13.08    <-- DIS
     708      34.91337339      34.91332968       1.252E-06     13.10    <-- DIS
     709      34.91333413      34.91329047       1.251E-06     13.12    <-- DIS
     710      34.91329493      34.91325133       1.249E-06     13.14    <-- DIS
     711      34.91325580      34.91321226       1.247E-06     13.16    <-- DIS
     712      34.91321674      34.91317325       1.246E-06     13.17    <-- DIS
     713      34.91317774      34.91313431       1.244E-06     13.19    <-- DIS
     714      34.91313881      34.91309542       1.243E-06     13.21    <-- DIS
     715      34.91309993      34.91305660       1.241E-06     13.23    <-- DIS
     716      34.91306112      34.91301784       1.240E-06     13.24    <-- DIS
     717      34.91302237      34.91297914       1.238E-06     13.26    <-- DIS
     718      34.91298368      34.91294050       1.237E-06     13.28    <-- DIS
     719      34.91294505      34.91290191       1.236E-06     13.30    <-- DIS
     720      34.91290647      34.91286338       1.234E-06     13.32    <-- DIS
     721      34.91286795      34.91282490       1.233E-06     13.33    <-- DIS
     722      34.91282948      34.91278647       1.232E-06     13.35    <-- DIS
     723      34.91279106      34.91274810       1.231E-06     13.37    <-- DIS
     724      34.91275270      34.91270978       1.229E-06     13.39    <-- DIS
     725      34.91271439      34.91267150       1.228E-06     13.41    <-- DIS
     726      34.91267612      34.91263328       1.227E-06     13.42    <-- DIS
     727      34.91263791      34.91259510       1.226E-06     13.44    <-- DIS
     728      34.91259974      34.91255696       1.225E-06     13.46    <-- DIS
     729      34.91256161      34.91251888       1.224E-06     13.48    <-- DIS
     730      34.91252354      34.91248083       1.223E-06     13.50    <-- DIS
     731      34.91248550      34.91244283       1.222E-06     13.52    <-- DIS
     732      34.91244751      34.91240487       1.221E-06     13.53    <-- DIS
     733      34.91240956      34.91236695       1.221E-06     13.55    <-- DIS
     734      34.91237165      34.91232907       1.220E-06     13.57    <-- DIS
     735      34.91233378      34.91229123       1.219E-06     13.59    <-- DIS
     736      34.91229595      34.91225342       1.218E-06     13.61    <-- DIS
     737      34.91225816      34.91221566       1.217E-06     13.62    <-- DIS
     738      34.91222040      34.91217792       1.217E-06     13.64    <-- DIS
     739      34.91218268      34.91214023       1.216E-06     13.66    <-- DIS
     740      34.91214499      34.91210256       1.215E-06     13.68    <-- DIS
     741      34.91210734      34.91206493       1.215E-06     13.70    <-- DIS
     742      34.91206972      34.91202733       1.214E-06     13.71    <-- DIS
     743      34.91203213      34.91198976       1.214E-06     13.73    <-- DIS
     744      34.91199457      34.91195222       1.213E-06     13.75    <-- DIS
     745      34.91195704      34.91191471       1.213E-06     13.77    <-- DIS
     746      34.91191954      34.91187722       1.212E-06     13.86    <-- DIS
     747      34.91188206      34.91183976       1.212E-06     13.88    <-- DIS
     748      34.91184462      34.91180233       1.211E-06     13.90    <-- DIS
     749      34.91180720      34.91176493       1.211E-06     13.92    <-- DIS
     750      34.91176980      34.91172754       1.210E-06     13.94    <-- DIS
     751      34.91173243      34.91169018       1.210E-06     13.96    <-- DIS
     752      34.91169508      34.91165285       1.210E-06     13.97    <-- DIS
     753      34.91165776      34.91161553       1.210E-06     13.99    <-- DIS
     754      34.91162045      34.91157824       1.209E-06     14.01    <-- DIS
     755      34.91158317      34.91154096       1.209E-06     14.03    <-- DIS
     756      34.91154590      34.91150370       1.209E-06     14.05    <-- DIS
     757      34.91150866      34.91146646       1.209E-06     14.07    <-- DIS
     758      34.91147143      34.91142924       1.208E-06     14.09    <-- DIS
     759      34.91143422      34.91139204       1.208E-06     14.10    <-- DIS
     760      34.91139703      34.91135485       1.208E-06     14.12    <-- DIS
     761      34.91135985      34.91131767       1.208E-06     14.14    <-- DIS
     762      34.91132269      34.91128051       1.208E-06     14.16    <-- DIS
     763      34.91128554      34.91124336       1.208E-06     14.18    <-- DIS
     764      34.91124840      34.91120622       1.208E-06     14.20    <-- DIS
     765      34.91121128      34.91116910       1.208E-06     14.21    <-- DIS
     766      34.91117416      34.91113198       1.208E-06     14.23    <-- DIS
     767      34.91113706      34.91109488       1.208E-06     14.25    <-- DIS
     768      34.91109997      34.91105778       1.208E-06     14.27    <-- DIS
[...]
  WF centre and spread   23  (  1.282526, -2.204735, -1.850749 )     2.48357472
  WF centre and spread   24  ( -0.871603, -1.572059,  0.235741 )     2.64014067
  WF centre and spread   25  (  2.331585,  0.113961,  0.420970 )     2.57125232
  WF centre and spread   26  ( -0.387688,  0.889500, -1.430253 )     2.58268846
  Sum of centres and spreads ( -5.375271,  5.378121,  5.382847 )    45.80097570
 
   7000    -0.269E-08     0.0000171344       45.8009757002     293.43  <-- CONV
        O_D=      0.2338299 O_OD=     10.6861080 O_TOT=     45.8009757 <-- SPRD
 Delta: O_D= -0.4723032E-08 O_OD=  0.2028131E-08 O_TOT= -0.2694904E-08 <-- DLTA
 ------------------------------------------------------------------------------

 done


 done


 done


 done


 done

 Cycle:   7500
  WF centre and spread    1  (  0.678482, -0.761518,  0.058946 )     1.35621910
  WF centre and spread    2  (  1.257834, -0.972580, -0.995308 )     1.41703751
  WF centre and spread    3  (  0.632648, -0.023276, -0.393231 )     1.42954639
  WF centre and spread    4  (  1.327976, -0.446703, -0.404933 )     1.38379796
  WF centre and spread    5  (  0.066786, -0.925089, -0.422666 )     1.36577734
  WF centre and spread    6  ( -0.678636,  0.758458, -0.058921 )     1.35683451
  WF centre and spread    7  ( -1.253836,  0.973364,  1.001056 )     1.41907417
  WF centre and spread    8  ( -0.639389,  0.021085,  0.393808 )     1.42858591
  WF centre and spread    9  ( -1.331723,  0.450968,  0.408254 )     1.38159052
  WF centre and spread   10  ( -0.068443,  0.927475,  0.421085 )     1.36707208
  WF centre and spread   11  ( -0.114950,  0.303754,  0.964813 )     1.44500623
  WF centre and spread   12  ( -1.844829, -0.264978,  1.592352 )     1.45179862
  WF centre and spread   13  ( -0.513132,  0.935123,  1.291021 )     1.43036801
  WF centre and spread   14  ( -0.704748,  1.394780,  0.552052 )     1.34288893
  WF centre and spread   15  (  0.117098, -0.305604, -0.970959 )     1.44486958
  WF centre and spread   16  ( -0.841341,  0.265681,  1.100429 )     1.45022917
  WF centre and spread   17  (  0.519514,  1.753983,  1.395722 )     1.42964769
  WF centre and spread   18  ( -1.987704,  1.294277, -0.553389 )     1.34368058
  WF centre and spread   19  ( -1.280358,  2.202407,  1.851518 )     2.48727138
  WF centre and spread   20  (  0.870606,  1.572305, -0.234481 )     2.64082667
  WF centre and spread   21  ( -2.327995, -0.112030, -0.423240 )     2.57222093
  WF centre and spread   22  (  0.386047, -0.890428,  1.433208 )     2.57897529
  WF centre and spread   23  (  1.282527, -2.204735, -1.850748 )     2.48357056
  WF centre and spread   24  ( -0.871603, -1.572057,  0.235743 )     2.64013612
  WF centre and spread   25  (  2.331585,  0.113961,  0.420970 )     2.57125951
  WF centre and spread   26  ( -0.387687,  0.889500, -1.430252 )     2.58269070
  Sum of centres and spreads ( -5.375272,  5.378121,  5.382847 )    45.80097549
 
   7500    -0.371E-11     0.0000107623       45.8009754865     306.84  <-- CONV
        O_D=      0.2338296 O_OD=     10.6861081 O_TOT=     45.8009755 <-- SPRD
 Delta: O_D= -0.6974810E-11 O_OD=  0.3261391E-11 O_TOT= -0.3709033E-11 <-- DLTA
 ------------------------------------------------------------------------------

 done


 done


 done


 done


 done

 Cycle:   8000
  WF centre and spread    1  (  0.678462, -0.761552,  0.058943 )     1.35622075
  WF centre and spread    2  (  1.257877, -0.972574, -0.995247 )     1.41701925
  WF centre and spread    3  (  0.632578, -0.023299, -0.393223 )     1.42955499
  WF centre and spread    4  (  1.327936, -0.446665, -0.404887 )     1.38381994
  WF centre and spread    5  (  0.066758, -0.925064, -0.422703 )     1.36576321
  WF centre and spread    6  ( -0.678620,  0.758483, -0.058919 )     1.35683650
  WF centre and spread    7  ( -1.253866,  0.973363,  1.001012 )     1.41906211
  WF centre and spread    8  ( -0.639341,  0.021101,  0.393800 )     1.42859089
  WF centre and spread    9  ( -1.331696,  0.450943,  0.408221 )     1.38160620
  WF centre and spread   10  ( -0.068420,  0.927453,  0.421114 )     1.36706044
  WF centre and spread   11  ( -0.114973,  0.303756,  0.964866 )     1.44501118
  WF centre and spread   12  ( -1.844783, -0.264971,  1.592400 )     1.45181731
  WF centre and spread   13  ( -0.513179,  0.935123,  1.291051 )     1.43034519
  WF centre and spread   14  ( -0.704723,  1.394785,  0.552061 )     1.34289058
  WF centre and spread   15  (  0.117125, -0.305613, -0.971028 )     1.44487565
  WF centre and spread   16  ( -0.841380,  0.265678,  1.100393 )     1.45024567
  WF centre and spread   17  (  0.519582,  1.753982,  1.395681 )     1.42961887
  WF centre and spread   18  ( -1.987733,  1.294271, -0.553404 )     1.34368381
  WF centre and spread   19  ( -1.280359,  2.202406,  1.851517 )     2.48727031
  WF centre and spread   20  (  0.870606,  1.572303, -0.234482 )     2.64082418
  WF centre and spread   21  ( -2.327995, -0.112031, -0.423240 )     2.57222446
  WF centre and spread   22  (  0.386047, -0.890428,  1.433208 )     2.57897656
  WF centre and spread   23  (  1.282528, -2.204735, -1.850748 )     2.48356806
  WF centre and spread   24  ( -0.871603, -1.572056,  0.235743 )     2.64013339
  WF centre and spread   25  (  2.331585,  0.113961,  0.420971 )     2.57126385
  WF centre and spread   26  ( -0.387687,  0.889500, -1.430252 )     2.58269204
  Sum of centres and spreads ( -5.375272,  5.378122,  5.382847 )    45.80097537
 
   8000    -0.416E-11     0.0000197842       45.8009753710     320.55  <-- CONV
        O_D=      0.2338294 O_OD=     10.6861082 O_TOT=     45.8009754 <-- SPRD
 Delta: O_D= -0.4625827E-11 O_OD=  0.4671818E-12 O_TOT= -0.4163780E-11 <-- DLTA
 ------------------------------------------------------------------------------

 done


 done


 done


 done


 done

 Cycle:   8500
  WF centre and spread    1  (  0.678446, -0.761578,  0.058941 )     1.35622198
  WF centre and spread    2  (  1.257910, -0.972568, -0.995201 )     1.41700554
  WF centre and spread    3  (  0.632526, -0.023316, -0.393218 )     1.42956148
  WF centre and spread    4  (  1.327906, -0.446636, -0.404853 )     1.38383641
  WF centre and spread    5  (  0.066738, -0.925046, -0.422731 )     1.36575263
  WF centre and spread    6  ( -0.678608,  0.758503, -0.058918 )     1.35683798
  WF centre and spread    7  ( -1.253888,  0.973362,  1.000978 )     1.41905309
  WF centre and spread    8  ( -0.639306,  0.021112,  0.393795 )     1.42859464
  WF centre and spread    9  ( -1.331675,  0.450925,  0.408196 )     1.38161792
  WF centre and spread   10  ( -0.068403,  0.927436,  0.421136 )     1.36705175
  WF centre and spread   11  ( -0.114990,  0.303758,  0.964905 )     1.44501487
  WF centre and spread   12  ( -1.844748, -0.264965,  1.592436 )     1.45183127
  WF centre and spread   13  ( -0.513215,  0.935122,  1.291073 )     1.43032811
  WF centre and spread   14  ( -0.704704,  1.394789,  0.552068 )     1.34289181
  WF centre and spread   15  (  0.117145, -0.305620, -0.971080 )     1.44488020
  WF centre and spread   16  ( -0.841409,  0.265677,  1.100365 )     1.45025799
  WF centre and spread   17  (  0.519634,  1.753981,  1.395651 )     1.42959728
  WF centre and spread   18  ( -1.987754,  1.294266, -0.553416 )     1.34368624
  WF centre and spread   19  ( -1.280359,  2.202406,  1.851517 )     2.48726951
  WF centre and spread   20  (  0.870606,  1.572303, -0.234483 )     2.64082231
  WF centre and spread   21  ( -2.327995, -0.112031, -0.423240 )     2.57222710
  WF centre and spread   22  (  0.386047, -0.890428,  1.433208 )     2.57897751
  WF centre and spread   23  (  1.282528, -2.204735, -1.850747 )     2.48356618
  WF centre and spread   24  ( -0.871603, -1.572056,  0.235744 )     2.64013136
  WF centre and spread   25  (  2.331585,  0.113961,  0.420971 )     2.57126711
  WF centre and spread   26  ( -0.387687,  0.889501, -1.430252 )     2.58269303
  Sum of centres and spreads ( -5.375272,  5.378122,  5.382847 )    45.80097529
 
   8500    -0.184E-11     0.0000092366       45.8009752904     333.68  <-- CONV
        O_D=      0.2338292 O_OD=     10.6861083 O_TOT=     45.8009753 <-- SPRD
 Delta: O_D= -0.3453182E-11 O_OD=  0.1616485E-11 O_TOT= -0.1840306E-11 <-- DLTA
 ------------------------------------------------------------------------------

 done


 done


 done


 done


 done

 Cycle:   9000
  WF centre and spread    1  (  0.678437, -0.761594,  0.058940 )     1.35622273
  WF centre and spread    2  (  1.257930, -0.972565, -0.995172 )     1.41699708
  WF centre and spread    3  (  0.632494, -0.023326, -0.393214 )     1.42956550
  WF centre and spread    4  (  1.327887, -0.446618, -0.404832 )     1.38384657
  WF centre and spread    5  (  0.066725, -0.925035, -0.422748 )     1.36574612
  WF centre and spread    6  ( -0.678601,  0.758515, -0.058917 )     1.35683889
  WF centre and spread    7  ( -1.253902,  0.973362,  1.000958 )     1.41904753
  WF centre and spread    8  ( -0.639284,  0.021119,  0.393791 )     1.42859695
  WF centre and spread    9  ( -1.331662,  0.450914,  0.408181 )     1.38162514
  WF centre and spread   10  ( -0.068392,  0.927425,  0.421149 )     1.36704640
  WF centre and spread   11  ( -0.115000,  0.303759,  0.964929 )     1.44501715
  WF centre and spread   12  ( -1.844727, -0.264962,  1.592458 )     1.45183985
  WF centre and spread   13  ( -0.513237,  0.935122,  1.291087 )     1.43031760
  WF centre and spread   14  ( -0.704692,  1.394792,  0.552072 )     1.34289257
  WF centre and spread   15  (  0.117158, -0.305624, -0.971112 )     1.44488299
  WF centre and spread   16  ( -0.841427,  0.265675,  1.100348 )     1.45026557
  WF centre and spread   17  (  0.519666,  1.753981,  1.395633 )     1.42958397
  WF centre and spread   18  ( -1.987767,  1.294263, -0.553423 )     1.34368774
  WF centre and spread   19  ( -1.280360,  2.202406,  1.851516 )     2.48726902
  WF centre and spread   20  (  0.870606,  1.572302, -0.234483 )     2.64082117
  WF centre and spread   21  ( -2.327995, -0.112031, -0.423240 )     2.57222872
  WF centre and spread   22  (  0.386047, -0.890428,  1.433208 )     2.57897809
  WF centre and spread   23  (  1.282528, -2.204735, -1.850747 )     2.48356502
  WF centre and spread   24  ( -0.871603, -1.572055,  0.235744 )     2.64013010
  WF centre and spread   25  (  2.331586,  0.113961,  0.420971 )     2.57126912
  WF centre and spread   26  ( -0.387687,  0.889501, -1.430252 )     2.58269364
  Sum of centres and spreads ( -5.375272,  5.378122,  5.382847 )    45.80097524
 
   9000    -0.239E-11     0.0000086758       45.8009752434     350.20  <-- CONV
        O_D=      0.2338291 O_OD=     10.6861084 O_TOT=     45.8009752 <-- SPRD
 Delta: O_D= -0.4872880E-11 O_OD=  0.2474465E-11 O_TOT= -0.2387424E-11 <-- DLTA
 ------------------------------------------------------------------------------

 done


 done


 done


 done


 done

 Cycle:   9500
  WF centre and spread    1  (  0.678427, -0.761611,  0.058939 )     1.35622350
  WF centre and spread    2  (  1.257951, -0.972562, -0.995143 )     1.41698843
  WF centre and spread    3  (  0.632461, -0.023337, -0.393210 )     1.42956962
  WF centre and spread    4  (  1.327868, -0.446599, -0.404810 )     1.38385695
  WF centre and spread    5  (  0.066712, -0.925024, -0.422765 )     1.36573947
  WF centre and spread    6  ( -0.678593,  0.758527, -0.058916 )     1.35683982
  WF centre and spread    7  ( -1.253916,  0.973361,  1.000937 )     1.41904186
  WF centre and spread    8  ( -0.639261,  0.021126,  0.393788 )     1.42859932
  WF centre and spread    9  ( -1.331650,  0.450902,  0.408165 )     1.38163251
  WF centre and spread   10  ( -0.068381,  0.927415,  0.421162 )     1.36704094
  WF centre and spread   11  ( -0.115011,  0.303760,  0.964954 )     1.44501946
  WF centre and spread   12  ( -1.844705, -0.264958,  1.592481 )     1.45184860
  WF centre and spread   13  ( -0.513259,  0.935122,  1.291101 )     1.43030687
  WF centre and spread   14  ( -0.704680,  1.394794,  0.552077 )     1.34289335
  WF centre and spread   15  (  0.117170, -0.305629, -0.971144 )     1.44488585
  WF centre and spread   16  ( -0.841445,  0.265674,  1.100331 )     1.45027329
  WF centre and spread   17  (  0.519698,  1.753980,  1.395614 )     1.42957038
  WF centre and spread   18  ( -1.987781,  1.294260, -0.553430 )     1.34368928
  WF centre and spread   19  ( -1.280360,  2.202406,  1.851516 )     2.48726853
  WF centre and spread   20  (  0.870606,  1.572302, -0.234483 )     2.64082000
  WF centre and spread   21  ( -2.327995, -0.112031, -0.423240 )     2.57223038
  WF centre and spread   22  (  0.386047, -0.890428,  1.433208 )     2.57897868
  WF centre and spread   23  (  1.282529, -2.204735, -1.850747 )     2.48356383
  WF centre and spread   24  ( -0.871603, -1.572055,  0.235745 )     2.64012882
  WF centre and spread   25  (  2.331586,  0.113961,  0.420971 )     2.57127118
  WF centre and spread   26  ( -0.387687,  0.889501, -1.430251 )     2.58269426
  Sum of centres and spreads ( -5.375272,  5.378122,  5.382847 )    45.80097520
 
   9500    -0.725E-12     0.0000082820       45.8009751976     362.46  <-- CONV
        O_D=      0.2338290 O_OD=     10.6861084 O_TOT=     45.8009752 <-- SPRD
 Delta: O_D= -0.1584177E-11 O_OD=  0.8544276E-12 O_TOT= -0.7247536E-12 <-- DLTA
 ------------------------------------------------------------------------------

 done


 done


 done


 done


 done

 Cycle:  10000
  WF centre and spread    1  (  0.678419, -0.761625,  0.058938 )     1.35622418
  WF centre and spread    2  (  1.257969, -0.972559, -0.995118 )     1.41698087
  WF centre and spread    3  (  0.632432, -0.023346, -0.393207 )     1.42957324
  WF centre and spread    4  (  1.327852, -0.446583, -0.404791 )     1.38386603
  WF centre and spread    5  (  0.066701, -0.925014, -0.422781 )     1.36573367
  WF centre and spread    6  ( -0.678587,  0.758538, -0.058915 )     1.35684063
  WF centre and spread    7  ( -1.253928,  0.973361,  1.000919 )     1.41903690
  WF centre and spread    8  ( -0.639242,  0.021133,  0.393785 )     1.42860139
  WF centre and spread    9  ( -1.331638,  0.450892,  0.408151 )     1.38163895
  WF centre and spread   10  ( -0.068371,  0.927405,  0.421174 )     1.36703618
  WF centre and spread   11  ( -0.115020,  0.303761,  0.964975 )     1.44502149
  WF centre and spread   12  ( -1.844686, -0.264955,  1.592500 )     1.45185623
  WF centre and spread   13  ( -0.513278,  0.935121,  1.291114 )     1.43029750
  WF centre and spread   14  ( -0.704670,  1.394796,  0.552081 )     1.34289403
  WF centre and spread   15  (  0.117181, -0.305633, -0.971173 )     1.44488835
  WF centre and spread   16  ( -0.841461,  0.265673,  1.100316 )     1.45028004
  WF centre and spread   17  (  0.519727,  1.753980,  1.395597 )     1.42955849
  WF centre and spread   18  ( -1.987792,  1.294258, -0.553436 )     1.34369063
  WF centre and spread   19  ( -1.280360,  2.202405,  1.851516 )     2.48726809
  WF centre and spread   20  (  0.870606,  1.572301, -0.234484 )     2.64081898
  WF centre and spread   21  ( -2.327995, -0.112031, -0.423240 )     2.57223183
  WF centre and spread   22  (  0.386047, -0.890428,  1.433207 )     2.57897920
  WF centre and spread   23  (  1.282529, -2.204735, -1.850747 )     2.48356280
  WF centre and spread   24  ( -0.871603, -1.572055,  0.235745 )     2.64012771
  WF centre and spread   25  (  2.331586,  0.113961,  0.420971 )     2.57127298
  WF centre and spread   26  ( -0.387687,  0.889501, -1.430251 )     2.58269480
  Sum of centres and spreads ( -5.375272,  5.378122,  5.382847 )    45.80097516
 
  10000    -0.335E-11     0.0000079434       45.8009751592     376.70  <-- CONV
        O_D=      0.2338289 O_OD=     10.6861084 O_TOT=     45.8009752 <-- SPRD
 Delta: O_D= -0.7584294E-11 O_OD=  0.4231282E-11 O_TOT= -0.3353762E-11 <-- DLTA
 ------------------------------------------------------------------------------

 done

 Final State
  WF centre and spread    1  (  0.678419, -0.761625,  0.058938 )     1.35622418
  WF centre and spread    2  (  1.257969, -0.972559, -0.995118 )     1.41698087
  WF centre and spread    3  (  0.632432, -0.023346, -0.393207 )     1.42957324
  WF centre and spread    4  (  1.327852, -0.446583, -0.404791 )     1.38386603
  WF centre and spread    5  (  0.066701, -0.925014, -0.422781 )     1.36573367
  WF centre and spread    6  ( -0.678587,  0.758538, -0.058915 )     1.35684063
  WF centre and spread    7  ( -1.253928,  0.973361,  1.000919 )     1.41903690
  WF centre and spread    8  ( -0.639242,  0.021133,  0.393785 )     1.42860139
  WF centre and spread    9  ( -1.331638,  0.450892,  0.408151 )     1.38163895
  WF centre and spread   10  ( -0.068371,  0.927405,  0.421174 )     1.36703618
  WF centre and spread   11  ( -0.115020,  0.303761,  0.964975 )     1.44502149
  WF centre and spread   12  ( -1.844686, -0.264955,  1.592500 )     1.45185623
  WF centre and spread   13  ( -0.513278,  0.935121,  1.291114 )     1.43029750
  WF centre and spread   14  ( -0.704670,  1.394796,  0.552081 )     1.34289403
  WF centre and spread   15  (  0.117181, -0.305633, -0.971173 )     1.44488835
  WF centre and spread   16  ( -0.841461,  0.265673,  1.100316 )     1.45028004
  WF centre and spread   17  (  0.519727,  1.753980,  1.395597 )     1.42955849
  WF centre and spread   18  ( -1.987792,  1.294258, -0.553436 )     1.34369063
  WF centre and spread   19  ( -1.280360,  2.202405,  1.851516 )     2.48726809
  WF centre and spread   20  (  0.870606,  1.572301, -0.234484 )     2.64081898
  WF centre and spread   21  ( -2.327995, -0.112031, -0.423240 )     2.57223183
  WF centre and spread   22  (  0.386047, -0.890428,  1.433207 )     2.57897920
  WF centre and spread   23  (  1.282529, -2.204735, -1.850747 )     2.48356280
  WF centre and spread   24  ( -0.871603, -1.572055,  0.235745 )     2.64012771
  WF centre and spread   25  (  2.331586,  0.113961,  0.420971 )     2.57127298
  WF centre and spread   26  ( -0.387687,  0.889501, -1.430251 )     2.58269480
  Sum of centres and spreads ( -5.375272,  5.378122,  5.382847 )    45.80097516
 
         Spreads (Ang^2)       Omega I      =    34.881037784
        ================       Omega D      =     0.233828926
                               Omega OD     =    10.686108449
    Final Spread (Ang^2)       Omega Total  =    45.800975159
 ------------------------------------------------------------------------------
 Time for wannierise          294.273 (sec)

 done

 *---------------------------------------------------------------------------*
 |                               PLOTTING                                    |
 *---------------------------------------------------------------------------*
 
 
 Calculating interpolated band-structure
 
 Time to calculate interpolated band structure      62.952 (sec)
 
 Time for plotting             75.295 (sec)
 Total Execution Time         441.837 (sec)

 *===========================================================================*
 |                             TIMING INFORMATION                            |
 *===========================================================================*
 |    Tag                                                Ncalls      Time (s)|
 |---------------------------------------------------------------------------|
 |kmesh: get                                        :         1         1.710|
 |overlap: allocate                                 :         1         0.020|
 |overlap: read                                     :         1        19.668|
 |dis: main                                         :         1        48.974|
 |wann: main                                        :         1       294.272|
 |plot: main                                        :         1        75.295|
 *---------------------------------------------------------------------------*
 
 All done: wannier90 exiting
