<PP_INFO>
Generated using Fritz-Haber code                                                
Author: unknown    Generation date: as well                                     
Info: automatically converted from FHI format                                   
    1        The Pseudo was generated with a Scalar-Relativistic Calculation
nl pn  l   occ               Rcut            Rcut US             E pseu
4s  0  0  2.00      0.00000000000      0.00000000000      0.00000000000
4p  0  1  3.00      0.00000000000      0.00000000000      0.00000000000
4d  0  2  0.00      0.00000000000      0.00000000000      0.00000000000

[kioup@Macbook] [17:23:57] [~/code/atom-5.70/As_valence] $ cat atom.dat 
   pg As
   type=tm2
 n=As c=car
    0.0
    6    3
    4    0      2.00
    4    1      3.00
    4    2      0.00
    1.40      2.10      2.10      0.00       0.00      0.00

[kioup@Macbook] [17:23:59] [~/code/atom-5.70/As_valence] $ ~/code/espresso-4.3.1/upftools/fhi2upf.x
Input file > OUTPUT.cpi
Pseudopotential without NLCC successfully read
Atom name > As
l local (max: 2) > 2
DFT > PZ
Wavefunction # 1: label, occupancy > 4s, 2.00
Wavefunction # 2: label, occupancy > 4p, 3.00
Wavefunction # 3: label, occupancy > 4d, 0.00
Pseudopotential successfully converted
Output PP file in UPF format :  OUTPUT.cpi.UPF 

</PP_INFO>


<PP_HEADER>
   0                   Version Number
  As                   Element
   NC                  Norm - Conserving pseudopotential
    F                  Nonlinear Core Correction
SLA  PZ   NOGX NOGC    PZ   Exchange-Correlation functional
    5.00000000000      Z valence
    0.00000000000      Total energy
    0.00000    0.00000 Suggested cutoff for wfc and rho
    1                  Max angular momentum component
 1142                  Number of points in mesh
    3    2             Number of Wavefunctions, Number of Projectors
 Wavefunctions         nl  l   occ
                       4s  0  2.00
                       4p  1  3.00
                       4d  2  0.00
</PP_HEADER>


<PP_MESH>
  <PP_R>
  9.44814064710E-07  1.90151242735E-06  2.87024457398E-06  3.85116187097E-06
  4.84441758865E-06  5.85016692525E-06  6.86856703113E-06  7.89977703339E-06
  8.94395806070E-06  1.00012732685E-05  1.10718878643E-05  1.21559691340E-05
  1.32536864674E-05  1.43652113851E-05  1.54907175651E-05  1.66303808700E-05
  1.77843793746E-05  1.89528933934E-05  2.01361055092E-05  2.13342006013E-05
  2.25473658744E-05  2.37757908882E-05  2.50196675864E-05  2.62791903274E-05
  2.75545559142E-05  2.88459636252E-05  3.01536152455E-05  3.14777150984E-05
  3.28184700770E-05  3.41760896773E-05  3.55507860298E-05  3.69427739338E-05
  3.83522708902E-05  3.97794971358E-05  4.12246756776E-05  4.26880323276E-05
  4.41697957383E-05  4.56701974382E-05  4.71894718683E-05  4.87278564181E-05
  5.02855914635E-05  5.18629204036E-05  5.34600896993E-05  5.50773489117E-05
  5.67149507407E-05  5.83731510649E-05  6.00522089816E-05  6.17523868469E-05
  6.34739503170E-05  6.52171683899E-05  6.69823134468E-05  6.87696612953E-05
  7.05794912121E-05  7.24120859868E-05  7.42677319660E-05  7.61467190983E-05
  7.80493409792E-05  7.99758948972E-05  8.19266818803E-05  8.39020067429E-05
  8.59021781336E-05  8.79275085832E-05  8.99783145537E-05  9.20549164877E-05
  9.41576388585E-05  9.62868102208E-05  9.84427632619E-05  1.00625834854E-04
  1.02836366106E-04  1.05074702418E-04  1.07341193536E-04  1.09636193601E-04
  1.11960061215E-04  1.14313159484E-04  1.16695856085E-04  1.19108523321E-04
  1.21551538174E-04  1.24025282372E-04  1.26530142440E-04  1.29066509770E-04
  1.31634780674E-04  1.34235356448E-04  1.36868643439E-04  1.39535053103E-04
  1.42235002071E-04  1.44968912217E-04  1.47737210719E-04  1.50540330129E-04
  1.53378708441E-04  1.56252789157E-04  1.59163021359E-04  1.62109859775E-04
  1.65093764855E-04  1.68115202840E-04  1.71174645837E-04  1.74272571890E-04
  1.77409465055E-04  1.80585815478E-04  1.83802119472E-04  1.87058879590E-04
  1.90356604706E-04  1.93695810099E-04  1.97077017525E-04  2.00500755304E-04
  2.03967558403E-04  2.07477968517E-04  2.11032534154E-04  2.14631810724E-04
  2.18276360619E-04  2.21966753308E-04  2.25703565423E-04  2.29487380847E-04
  2.33318790811E-04  2.37198393980E-04  2.41126796549E-04  2.45104612339E-04
  2.49132462892E-04  2.53210977569E-04  2.57340793644E-04  2.61522556411E-04
  2.65756919279E-04  2.70044543874E-04  2.74386100148E-04  2.78782266477E-04
  2.83233729771E-04  2.87741185580E-04  2.92305338204E-04  2.96926900800E-04
  3.01606595498E-04  3.06345153508E-04  3.11143315241E-04  3.16001830419E-04
  3.20921458194E-04  3.25902967269E-04  3.30947136014E-04  3.36054752592E-04
  3.41226615077E-04  3.46463531584E-04  3.51766320391E-04  3.57135810071E-04
  3.62572839616E-04  3.68078258574E-04  3.73652927177E-04  3.79297716479E-04
  3.85013508490E-04  3.90801196314E-04  3.96661684288E-04  4.02595888127E-04
  4.08604735061E-04  4.14689163985E-04  4.20850125603E-04  4.27088582579E-04
  4.33405509683E-04  4.39801893949E-04  4.46278734824E-04  4.52837044328E-04
  4.59477847211E-04  4.66202181111E-04  4.73011096718E-04  4.79905657941E-04
  4.86886942069E-04  4.93956039940E-04  5.01114056116E-04  5.08362109052E-04
  5.15701331271E-04  5.23132869540E-04  5.30657885054E-04  5.38277553610E-04
  5.45993065798E-04  5.53805627183E-04  5.61716458492E-04  5.69726795809E-04
  5.77837890767E-04  5.86051010739E-04  5.94367439042E-04  6.02788475136E-04
  6.11315434825E-04  6.19949650463E-04  6.28692471163E-04  6.37545263010E-04
  6.46509409271E-04  6.55586310611E-04  6.64777385314E-04  6.74084069505E-04
  6.83507817373E-04  6.93050101396E-04  7.02712412576E-04  7.12496260669E-04
  7.22403174422E-04  7.32434701809E-04  7.42592410277E-04  7.52877886989E-04
  7.63292739071E-04  7.73838593865E-04  7.84517099183E-04  7.95329923563E-04
  8.06278756530E-04  8.17365308862E-04  8.28591312855E-04  8.39958522596E-04
  8.51468714233E-04  8.63123686258E-04  8.74925259784E-04  8.86875278830E-04
  8.98975610612E-04  9.11228145831E-04  9.23634798971E-04  9.36197508596E-04
  9.48918237655E-04  9.61798973788E-04  9.74841729636E-04  9.88048543157E-04
  1.00142147794E-03  1.01496262354E-03  1.02867409578E-03  1.04255803711E-03
  1.05661661692E-03  1.07085203190E-03  1.08526650635E-03  1.09986229258E-03
  1.11464167119E-03  1.12960695150E-03  1.14476047187E-03  1.16010460005E-03
  1.17564173361E-03  1.19137430025E-03  1.20730475822E-03  1.22343559668E-03
  1.23976933611E-03  1.25630852869E-03  1.27305575870E-03  1.29001364294E-03
  1.30718483110E-03  1.32457200621E-03  1.34217788507E-03  1.36000521862E-03
  1.37805679242E-03  1.39633542707E-03  1.41484397864E-03  1.43358533913E-03
  1.45256243691E-03  1.47177823720E-03  1.49123574250E-03  1.51093799308E-03
  1.53088806748E-03  1.55108908291E-03  1.57154419584E-03  1.59225660242E-03
  1.61322953899E-03  1.63446628264E-03  1.65597015164E-03  1.67774450601E-03
  1.69979274804E-03  1.72211832281E-03  1.74472471875E-03  1.76761546814E-03
  1.79079414771E-03  1.81426437918E-03  1.83802982982E-03  1.86209421303E-03
  1.88646128892E-03  1.91113486489E-03  1.93611879624E-03  1.96141698676E-03
  1.98703338934E-03  2.01297200661E-03  2.03923689151E-03  2.06583214799E-03
  2.09276193162E-03  2.12003045023E-03  2.14764196458E-03  2.17560078902E-03
  2.20391129218E-03  2.23257789763E-03  2.26160508460E-03  2.29099738862E-03
  2.32075940232E-03  2.35089577606E-03  2.38141121872E-03  2.41231049840E-03
  2.44359844317E-03  2.47527994184E-03  2.50735994470E-03  2.53984346432E-03
  2.57273557633E-03  2.60604142016E-03  2.63976619995E-03  2.67391518523E-03
  2.70849371188E-03  2.74350718285E-03  2.77896106906E-03  2.81486091027E-03
  2.85121231589E-03  2.88802096590E-03  2.92529261173E-03  2.96303307716E-03
  3.00124825919E-03  3.03994412905E-03  3.07912673303E-03  3.11880219349E-03
  3.15897670981E-03  3.19965655934E-03  3.24084809838E-03  3.28255776320E-03
  3.32479207102E-03  3.36755762103E-03  3.41086109544E-03  3.45470926051E-03
  3.49910896760E-03  3.54406715424E-03  3.58959084527E-03  3.63568715383E-03
  3.68236328257E-03  3.72962652474E-03  3.77748426531E-03  3.82594398216E-03
  3.87501324720E-03  3.92469972761E-03  3.97501118701E-03  4.02595548667E-03
  4.07754058672E-03  4.12977454746E-03  4.18266553055E-03  4.23622180030E-03
  4.29045172499E-03  4.34536377817E-03  4.40096653994E-03  4.45726869836E-03
  4.51427905075E-03  4.57200650510E-03  4.63046008143E-03  4.68964891324E-03
  4.74958224890E-03  4.81026945312E-03  4.87172000840E-03  4.93394351651E-03
  4.99694970000E-03  5.06074840372E-03  5.12534959634E-03  5.19076337193E-03
  5.25699995153E-03  5.32406968473E-03  5.39198305133E-03  5.46075066291E-03
  5.53038326456E-03  5.60089173652E-03  5.67228709588E-03  5.74458049831E-03
  5.81778323979E-03  5.89190675841E-03  5.96696263612E-03  6.04296260055E-03
  6.11991852684E-03  6.19784243953E-03  6.27674651438E-03  6.35664308031E-03
  6.43754462132E-03  6.51946377844E-03  6.60241335171E-03  6.68640630217E-03
  6.77145575389E-03  6.85757499602E-03  6.94477748486E-03  7.03307684597E-03
  7.12248687633E-03  7.21302154641E-03  7.30469500246E-03  7.39752156863E-03
  7.49151574927E-03  7.58669223115E-03  7.68306588580E-03  7.78065177179E-03
  7.87946513713E-03  7.97952142158E-03  8.08083625917E-03  8.18342548053E-03
  8.28730511543E-03  8.39249139530E-03  8.49900075568E-03  8.60684983889E-03
  8.71605549658E-03  8.82663479233E-03  8.93860500440E-03  9.05198362835E-03
  9.16678837983E-03  9.28303719731E-03  9.40074824491E-03  9.51993991522E-03
  9.64063083218E-03  9.76283985399E-03  9.88658607606E-03  1.00118888340E-02
  1.01387677066E-02  1.02672425189E-02  1.03973333455E-02  1.05290605132E-02
  1.06624446047E-02  1.07975064615E-02  1.09342671873E-02  1.10727481514E-02
  1.12129709915E-02  1.13549576178E-02  1.14987302160E-02  1.16443112508E-02
  1.17917234697E-02  1.19409899060E-02  1.20921338830E-02  1.22451790171E-02
  1.24001492220E-02  1.25570687122E-02  1.27159620065E-02  1.28768539325E-02
  1.30397696297E-02  1.32047345542E-02  1.33717744820E-02  1.35409155134E-02
  1.37121840770E-02  1.38856069340E-02  1.40612111820E-02  1.42390242595E-02
  1.44190739502E-02  1.46013883872E-02  1.47859960576E-02  1.49729258065E-02
  1.51622068423E-02  1.53538687403E-02  1.55479414483E-02  1.57444552904E-02
  1.59434409724E-02  1.61449295861E-02  1.63489526146E-02  1.65555419369E-02
  1.67647298329E-02  1.69765489888E-02  1.71910325016E-02  1.74082138850E-02
  1.76281270738E-02  1.78508064300E-02  1.80762867477E-02  1.83046032587E-02
  1.85357916378E-02  1.87698880087E-02  1.90069289495E-02  1.92469514983E-02
  1.94899931591E-02  1.97360919077E-02  1.99852861974E-02  2.02376149654E-02
  2.04931176386E-02  2.07518341398E-02  2.10138048940E-02  2.12790708346E-02
  2.15476734100E-02  2.18196545899E-02  2.20950568718E-02  2.23739232880E-02
  2.26562974119E-02  2.29422233651E-02  2.32317458240E-02  2.35249100271E-02
  2.38217617820E-02  2.41223474722E-02  2.44267140650E-02  2.47349091182E-02
  2.50469807880E-02  2.53629778361E-02  2.56829496378E-02  2.60069461893E-02
  2.63350181158E-02  2.66672166790E-02  2.70035937858E-02  2.73442019957E-02
  2.76890945295E-02  2.80383252773E-02  2.83919488072E-02  2.87500203735E-02
  2.91125959256E-02  2.94797321167E-02  2.98514863126E-02  3.02279166007E-02
  3.06090817989E-02  3.09950414651E-02  3.13858559062E-02  3.17815861879E-02
  3.21822941437E-02  3.25880423851E-02  3.29988943111E-02  3.34149141182E-02
  3.38361668102E-02  3.42627182088E-02  3.46946349635E-02  3.51319845622E-02
  3.55748353416E-02  3.60232564981E-02  3.64773180983E-02  3.69370910904E-02
  3.74026473148E-02  3.78740595156E-02  3.83514013519E-02  3.88347474094E-02
  3.93241732119E-02  3.98197552331E-02  4.03215709087E-02  4.08296986485E-02
  4.13442178484E-02  4.18652089032E-02  4.23927532186E-02  4.29269332247E-02
  4.34678323882E-02  4.40155352255E-02  4.45701273164E-02  4.51316953171E-02
  4.57003269737E-02  4.62761111360E-02  4.68591377714E-02  4.74494979792E-02
  4.80472840042E-02  4.86525892518E-02  4.92655083021E-02  4.98861369250E-02
  5.05145720949E-02  5.11509120061E-02  5.17952560881E-02  5.24477050209E-02
  5.31083607510E-02  5.37773265072E-02  5.44547068167E-02  5.51406075216E-02
  5.58351357953E-02  5.65384001593E-02  5.72505104999E-02  5.79715780860E-02
  5.87017155857E-02  5.94410370846E-02  6.01896581032E-02  6.09476956150E-02
  6.17152680648E-02  6.24924953876E-02  6.32794990265E-02  6.40764019526E-02
  6.48833286835E-02  6.57004053032E-02  6.65277594816E-02  6.73655204944E-02
  6.82138192435E-02  6.90727882774E-02  6.99425618115E-02  7.08232757500E-02
  7.17150677060E-02  7.26180770240E-02  7.35324448008E-02  7.44583139085E-02
  7.53958290159E-02  7.63451366116E-02  7.73063850269E-02  7.82797244588E-02
  7.92653069935E-02  8.02632866305E-02  8.12738193059E-02  8.22970629176E-02
  8.33331773496E-02  8.43823244966E-02  8.54446682903E-02  8.65203747238E-02
  8.76096118786E-02  8.87125499502E-02  8.98293612749E-02  9.09602203567E-02
  9.21053038946E-02  9.32647908103E-02  9.44388622761E-02  9.56277017428E-02
  9.68314949692E-02  9.80504300503E-02  9.92846974473E-02  1.00534490017E-01
  1.01800003042E-01  1.03081434261E-01  1.04378983901E-01  1.05692854706E-01
  1.07023251971E-01  1.08370383573E-01  1.09734460006E-01  1.11115694407E-01
  1.12514302599E-01  1.13930503116E-01  1.15364517242E-01  1.16816569046E-01
  1.18286885413E-01  1.19775696083E-01  1.21283233686E-01  1.22809733778E-01
  1.24355434877E-01  1.25920578502E-01  1.27505409211E-01  1.29110174636E-01
  1.30735125525E-01  1.32380515780E-01  1.34046602497E-01  1.35733646005E-01
  1.37441909908E-01  1.39171661125E-01  1.40923169935E-01  1.42696710013E-01
  1.44492558479E-01  1.46310995937E-01  1.48152306524E-01  1.50016777946E-01
  1.51904701532E-01  1.53816372273E-01  1.55752088872E-01  1.57712153788E-01
  1.59696873286E-01  1.61706557482E-01  1.63741520393E-01  1.65802079986E-01
  1.67888558229E-01  1.70001281137E-01  1.72140578828E-01  1.74306785571E-01
  1.76500239840E-01  1.78721284368E-01  1.80970266197E-01  1.83247536734E-01
  1.85553451809E-01  1.87888371725E-01  1.90252661318E-01  1.92646690013E-01
  1.95070831882E-01  1.97525465702E-01  2.00010975014E-01  2.02527748185E-01
  2.05076178465E-01  2.07656664052E-01  2.10269608152E-01  2.12915419043E-01
  2.15594510138E-01  2.18307300050E-01  2.21054212659E-01  2.23835677174E-01
  2.26652128207E-01  2.29504005832E-01  2.32391755662E-01  2.35315828913E-01
  2.38276682478E-01  2.41274778996E-01  2.44310586925E-01  2.47384580618E-01
  2.50497240391E-01  2.53649052605E-01  2.56840509735E-01  2.60072110455E-01
  2.63344359707E-01  2.66657768788E-01  2.70012855425E-01  2.73410143856E-01
  2.76850164916E-01  2.80333456113E-01  2.83860561720E-01  2.87432032854E-01
  2.91048427565E-01  2.94710310921E-01  2.98418255099E-01  3.02172839474E-01
  3.05974650706E-01  3.09824282837E-01  3.13722337379E-01  3.17669423411E-01
  3.21666157673E-01  3.25713164664E-01  3.29811076736E-01  3.33960534196E-01
  3.38162185406E-01  3.42416686882E-01  3.46724703399E-01  3.51086908092E-01
  3.55503982566E-01  3.59976616998E-01  3.64505510244E-01  3.69091369955E-01
  3.73734912680E-01  3.78436863983E-01  3.83197958552E-01  3.88018940318E-01
  3.92900562569E-01  3.97843588070E-01  4.02848789177E-01  4.07916947964E-01
  4.13048856341E-01  4.18245316178E-01  4.23507139434E-01  4.28835148279E-01
  4.34230175224E-01  4.39693063255E-01  4.45224665958E-01  4.50825847657E-01
  4.56497483550E-01  4.62240459839E-01  4.68055673877E-01  4.73944034303E-01
  4.79906461186E-01  4.85943886166E-01  4.92057252604E-01  4.98247515725E-01
  5.04515642771E-01  5.10862613149E-01  5.17289418586E-01  5.23797063285E-01
  5.30386564076E-01  5.37058950584E-01  5.43815265383E-01  5.50656564160E-01
  5.57583915881E-01  5.64598402961E-01  5.71701121427E-01  5.78893181093E-01
  5.86175705732E-01  5.93549833255E-01  6.01016715884E-01  6.08577520334E-01
  6.16233427996E-01  6.23985635122E-01  6.31835353009E-01  6.39783808193E-01
  6.47832242635E-01  6.55981913919E-01  6.64234095449E-01  6.72590076644E-01
  6.81051163144E-01  6.89618677011E-01  6.98293956935E-01  7.07078358447E-01
  7.15973254129E-01  7.24980033824E-01  7.34100104862E-01  7.43334892271E-01
  7.52685839006E-01  7.62154406171E-01  7.71742073250E-01  7.81450338334E-01
  7.91280718360E-01  8.01234749345E-01  8.11313986626E-01  8.21520005105E-01
  8.31854399493E-01  8.42318784560E-01  8.52914795388E-01  8.63644087624E-01
  8.74508337743E-01  8.85509243305E-01  8.96648523225E-01  9.07927918037E-01
  9.19349190170E-01  9.30914124222E-01  9.42624527236E-01  9.54482228987E-01
  9.66489082265E-01  9.78646963165E-01  9.90957771380E-01  1.00342343050E+00
  1.01604588831E+00  1.02882711709E+00  1.04176911394E+00  1.05487390107E+00
  1.06814352613E+00  1.08158006253E+00  1.09518560975E+00  1.10896229368E+00
  1.12291226697E+00  1.13703770932E+00  1.15134082786E+00  1.16582385748E+00
  1.18048906119E+00  1.19533873046E+00  1.21037518557E+00  1.22560077600E+00
  1.24101788078E+00  1.25662890887E+00  1.27243629952E+00  1.28844252266E+00
  1.30465007931E+00  1.32106150193E+00  1.33767935482E+00  1.35450623458E+00
  1.37154477043E+00  1.38879762467E+00  1.40626749311E+00  1.42395710544E+00
  1.44186922570E+00  1.46000665269E+00  1.47837222044E+00  1.49696879859E+00
  1.51579929289E+00  1.53486664566E+00  1.55417383619E+00  1.57372388129E+00
  1.59351983569E+00  1.61356479253E+00  1.63386188390E+00  1.65441428124E+00
  1.67522519592E+00  1.69629787968E+00  1.71763562517E+00  1.73924176646E+00
  1.76111967955E+00  1.78327278291E+00  1.80570453801E+00  1.82841844985E+00
  1.85141806754E+00  1.87470698479E+00  1.89828884057E+00  1.92216731957E+00
  1.94634615287E+00  1.97082911845E+00  1.99562004183E+00  2.02072279663E+00
  2.04614130522E+00  2.07187953928E+00  2.09794152048E+00  2.12433132105E+00
  2.15105306444E+00  2.17811092598E+00  2.20550913353E+00  2.23325196810E+00
  2.26134376458E+00  2.28978891235E+00  2.31859185604E+00  2.34775709615E+00
  2.37728918983E+00  2.40719275152E+00  2.43747245371E+00  2.46813302766E+00
  2.49917926416E+00  2.53061601424E+00  2.56244818996E+00  2.59468076515E+00
  2.62731877623E+00  2.66036732296E+00  2.69383156922E+00  2.72771674389E+00
  2.76202814158E+00  2.79677112353E+00  2.83195111839E+00  2.86757362311E+00
  2.90364420379E+00  2.94016849651E+00  2.97715220828E+00  3.01460111787E+00
  3.05252107676E+00  3.09091801002E+00  3.12979791723E+00  3.16916687348E+00
  3.20903103024E+00  3.24939661636E+00  3.29026993905E+00  3.33165738485E+00
  3.37356542063E+00  3.41600059460E+00  3.45896953736E+00  3.50247896288E+00
  3.54653566960E+00  3.59114654147E+00  3.63631854903E+00  3.68205875050E+00
  3.72837429288E+00  3.77527241306E+00  3.82276043898E+00  3.87084579072E+00
  3.91953598174E+00  3.96883861996E+00  4.01876140903E+00  4.06931214948E+00
  4.12049873997E+00  4.17232917851E+00  4.22481156370E+00  4.27795409604E+00
  4.33176507914E+00  4.38625292109E+00  4.44142613572E+00  4.49729334395E+00
  4.55386327516E+00  4.61114476850E+00  4.66914677433E+00  4.72787835558E+00
  4.78734868918E+00  4.84756706749E+00  4.90854289975E+00  4.97028571357E+00
  5.03280515637E+00  5.09611099696E+00  5.16021312699E+00  5.22512156257E+00
  5.29084644575E+00  5.35739804619E+00  5.42478676271E+00  5.49302312494E+00
  5.56211779494E+00  5.63208156890E+00  5.70292537880E+00  5.77466029413E+00
  5.84729752362E+00  5.92084841698E+00  5.99532446669E+00  6.07073730978E+00
  6.14709872966E+00  6.22442065796E+00  6.30271517639E+00  6.38199451862E+00
  6.46227107222E+00  6.54355738056E+00  6.62586614479E+00  6.70921022582E+00
  6.79360264633E+00  6.87905659282E+00  6.96558541763E+00  7.05320264108E+00
  7.14192195352E+00  7.23175721753E+00  7.32272247006E+00  7.41483192461E+00
  7.50809997347E+00  7.60254118996E+00  7.69817033072E+00  7.79500233799E+00
  7.89305234197E+00  7.99233566317E+00  8.09286781482E+00  8.19466450527E+00
  8.29774164046E+00  8.40211532639E+00  8.50780187168E+00  8.61481779005E+00
  8.72317980297E+00  8.83290484222E+00  8.94401005255E+00  9.05651279439E+00
  9.17043064652E+00  9.28578140882E+00  9.40258310511E+00  9.52085398586E+00
  9.64061253116E+00  9.76187745352E+00  9.88466770083E+00  1.00090024593E+01
  1.01349011565E+01  1.02623834644E+01  1.03914693023E+01  1.05221788402E+01
  1.06545325017E+01  1.07885509672E+01  1.09242551776E+01  1.10616663368E+01
  1.12008059156E+01  1.13416956548E+01  1.14843575688E+01  1.16288139488E+01
  1.17750873663E+01  1.19232006769E+01  1.20731770237E+01  1.22250398406E+01
  1.23788128567E+01  1.25345200991E+01  1.26921858976E+01  1.28518348877E+01
  1.30134920148E+01  1.31771825383E+01  1.33429320351E+01  1.35107664039E+01
  1.36807118693E+01  1.38527949854E+01  1.40270426406E+01  1.42034820615E+01
  1.43821408172E+01  1.45630468233E+01  1.47462283469E+01  1.49317140103E+01
  1.51195327962E+01  1.53097140517E+01  1.55022874928E+01  1.56972832096E+01
  1.58947316706E+01  1.60946637274E+01  1.62971106200E+01  1.65021039810E+01
  1.67096758411E+01  1.69198586337E+01  1.71326852004E+01  1.73481887958E+01
  1.75664030927E+01  1.77873621876E+01  1.80111006057E+01  1.82376533067E+01
  1.84670556898E+01  1.86993435997E+01  1.89345533318E+01  1.91727216382E+01
  1.94138857330E+01  1.96580832987E+01  1.99053524917E+01  2.01557319482E+01
  2.04092607906E+01  2.06659786333E+01  2.09259255889E+01  2.11891422747E+01
  2.14556698188E+01  2.17255498667E+01  2.19988245877E+01  2.22755366815E+01
  2.25557293850E+01  2.28394464789E+01  2.31267322944E+01  2.34176317207E+01
  2.37121902113E+01  2.40104537916E+01  2.43124690659E+01  2.46182832247E+01
  2.49279440521E+01  2.52414999332E+01  2.55589998617E+01  2.58804934477E+01
  2.62060309252E+01  2.65356631601E+01  2.68694416580E+01  2.72074185727E+01
  2.75496467136E+01  2.78961795545E+01  2.82470712420E+01  2.86023766036E+01
  2.89621511565E+01  2.93264511161E+01  2.96953334052E+01  3.00688556622E+01
  3.04470762509E+01  3.08300542688E+01  3.12178495573E+01  3.16105227099E+01
  3.20081350828E+01  3.24107488037E+01  3.28184267817E+01  3.32312327175E+01
  3.36492311126E+01  3.40724872804E+01  3.45010673553E+01  3.49350383040E+01
  3.53744679352E+01  3.58194249107E+01  3.62699787559E+01  3.67261998709E+01
  3.71881595411E+01  3.76559299486E+01  3.81295841835E+01  3.86091962552E+01
  3.90948411041E+01  3.95865946133E+01  4.00845336201E+01  4.05887359286E+01
  4.10992803213E+01  4.16162465720E+01  4.21397154577E+01  4.26697687713E+01
  4.32064893348E+01  4.37499610120E+01  4.43002687213E+01  4.48574984495E+01
  4.54217372648E+01  4.59930733307E+01  4.65715959196E+01  4.71573954268E+01
  4.77505633848E+01  4.83511924772E+01  4.89593765535E+01  4.95752106438E+01
  5.01987909733E+01  5.08302149777E+01  5.14695813184E+01  5.21169898977E+01
  5.27725418744E+01  5.34363396798E+01  5.41084870338E+01  5.47890889607E+01
  5.54782518060E+01  5.61760832527E+01  5.68826923385E+01  5.75981894723E+01
  5.83226864523E+01  5.90562964823E+01  5.97991341906E+01  6.05513156470E+01
  6.13129583814E+01  6.20841814021E+01  6.28651052141E+01  6.36558518384E+01
  6.44565448309E+01  6.52673093013E+01  6.60882719334E+01  6.69195610041E+01
  6.77613064041E+01  6.86136396579E+01  6.94766939441E+01  7.03506041169E+01
  7.12355067265E+01  7.21315400406E+01  7.30388440664E+01  7.39575605719E+01
  7.48878331084E+01  7.58298070330E+01  7.67836295309E+01  7.77494496389E+01
  7.87274182683E+01  7.97176882287E+01  8.07204142518E+01  8.17357530156E+01
  8.27638631689E+01  8.38049053559E+01  8.48590422416E+01  8.59264385370E+01
  8.70072610251E+01  8.81016785864E+01  8.92098622259E+01  9.03319850997E+01
  9.14682225416E+01  9.26187520912E+01  9.37837535210E+01  9.49634088647E+01
  9.61579024461E+01  9.73674209071E+01  9.85921532374E+01  9.98322908040E+01
  1.01088027381E+02  1.02359559179E+02  1.03647084879E+02  1.04950805658E+02
  1.06270925226E+02  1.07607649854E+02  1.08961188408E+02  1.10331752381E+02
  1.11719555927E+02  1.13124815892E+02  1.14547751851E+02  1.15988586142E+02
  1.17447543897E+02  1.18924853081E+02
  </PP_R>
  <PP_RAB>
  1.18101758089E-08  2.37689053419E-08  3.58780571748E-08  4.81395233871E-08
  6.05552198581E-08  7.31270865656E-08  8.58570878891E-08  9.87472129174E-08
  1.11799475759E-07  1.25015915856E-07  1.38398598304E-07  1.51949614175E-07
  1.65671080843E-07  1.79565142314E-07  1.93633969564E-07  2.07879760875E-07
  2.22304742183E-07  2.36911167418E-07  2.51701318865E-07  2.66677507516E-07
  2.81842073430E-07  2.97197386103E-07  3.12745844830E-07  3.28489879093E-07
  3.44431948928E-07  3.60574545315E-07  3.76920190569E-07  3.93471438730E-07
  4.10230875963E-07  4.27201120966E-07  4.44384825373E-07  4.61784674173E-07
  4.79403386128E-07  4.97243714198E-07  5.15308445970E-07  5.33600404095E-07
  5.52122446729E-07  5.70877467978E-07  5.89868398354E-07  6.09098205226E-07
  6.28569893294E-07  6.48286505045E-07  6.68251121241E-07  6.88466861396E-07
  7.08936884259E-07  7.29664388311E-07  7.50652612270E-07  7.71904835586E-07
  7.93424378963E-07  8.15214604874E-07  8.37278918085E-07  8.59620766191E-07
  8.82243640151E-07  9.05151074835E-07  9.28346649575E-07  9.51833988729E-07
  9.75616762240E-07  9.99698686215E-07  1.02408352350E-06  1.04877508429E-06
  1.07377722667E-06  1.09909385729E-06  1.12472893192E-06  1.15068645610E-06
  1.17697048573E-06  1.20358512776E-06  1.23053454077E-06  1.25782293568E-06
  1.28545457633E-06  1.31343378023E-06  1.34176491920E-06  1.37045242001E-06
  1.39950076519E-06  1.42891449355E-06  1.45869820106E-06  1.48885654151E-06
  1.51939422718E-06  1.55031602965E-06  1.58162678050E-06  1.61333137213E-06
  1.64543475843E-06  1.67794195560E-06  1.71085804299E-06  1.74418816379E-06
  1.77793752589E-06  1.81211140271E-06  1.84671513399E-06  1.88175412661E-06
  1.91723385551E-06  1.95315986446E-06  1.98953776699E-06  2.02637324719E-06
  2.06367206069E-06  2.10144003550E-06  2.13968307296E-06  2.17840714863E-06
  2.21761831319E-06  2.25732269348E-06  2.29752649340E-06  2.33823599488E-06
  2.37945755883E-06  2.42119762624E-06  2.46346271906E-06  2.50625944130E-06
  2.54959448004E-06  2.59347460646E-06  2.63790667693E-06  2.68289763405E-06
  2.72845450774E-06  2.77458441635E-06  2.82129456779E-06  2.86859226059E-06
  2.91648488514E-06  2.96497992475E-06  3.01408495686E-06  3.06380765424E-06
  3.11415578615E-06  3.16513721961E-06  3.21675992055E-06  3.26903195514E-06
  3.32196149099E-06  3.37555679843E-06  3.42982625185E-06  3.48477833096E-06
  3.54042162214E-06  3.59676481975E-06  3.65381672755E-06  3.71158626000E-06
  3.77008244373E-06  3.82931441885E-06  3.88929144051E-06  3.95002288024E-06
  4.01151822743E-06  4.07378709086E-06  4.13683920018E-06  4.20068440740E-06
  4.26533268846E-06  4.33079414480E-06  4.39707900489E-06  4.46419762589E-06
  4.53216049520E-06  4.60097823218E-06  4.67066158971E-06  4.74122145599E-06
  4.81266885613E-06  4.88501495393E-06  4.95827105360E-06  5.03244860159E-06
  5.10755918826E-06  5.18361454981E-06  5.26062657004E-06  5.33860728224E-06
  5.41756887104E-06  5.49752367436E-06  5.57848418530E-06  5.66046305410E-06
  5.74347309014E-06  5.82752726389E-06  5.91263870898E-06  5.99882072426E-06
  6.08608677586E-06  6.17445049925E-06  6.26392570145E-06  6.35452636315E-06
  6.44626664089E-06  6.53916086925E-06  6.63322356318E-06  6.72846942013E-06
  6.82491332248E-06  6.92257033979E-06  7.02145573115E-06  7.12158494761E-06
  7.22297363459E-06  7.32563763424E-06  7.42959298803E-06  7.53485593920E-06
  7.64144293531E-06  7.74937063079E-06  7.85865588954E-06  7.96931578763E-06
  8.08136761589E-06  8.19482888264E-06  8.30971731643E-06  8.42605086881E-06
  8.54384771716E-06  8.66312626745E-06  8.78390515720E-06  8.90620325836E-06
  9.03003968028E-06  9.15543377261E-06  9.28240512846E-06  9.41097358736E-06
  9.54115923839E-06  9.67298242331E-06  9.80646373979E-06  9.94162404454E-06
  1.00784844566E-05  1.02170663608E-05  1.03573914107E-05  1.04994815325E-05
  1.06433589279E-05  1.07890460782E-05  1.09365657473E-05  1.10859409854E-05
  1.12371951327E-05  1.13903518229E-05  1.15454349871E-05  1.17024688575E-05
  1.18614779707E-05  1.20224871724E-05  1.21855216205E-05  1.23506067895E-05
  1.25177684743E-05  1.26870327943E-05  1.28584261973E-05  1.30319754639E-05
  1.32077077115E-05  1.33856503988E-05  1.35658313294E-05  1.37482786573E-05
  1.39330208899E-05  1.41200868938E-05  1.43095058984E-05  1.45013075006E-05
  1.46955216701E-05  1.48921787531E-05  1.50913094778E-05  1.52929449585E-05
  1.54971167014E-05  1.57038566086E-05  1.59131969838E-05  1.61251705368E-05
  1.63398103888E-05  1.65571500776E-05  1.67772235634E-05  1.70000652328E-05
  1.72257099053E-05  1.74541928384E-05  1.76855497330E-05  1.79198167391E-05
  1.81570304614E-05  1.83972279650E-05  1.86404467813E-05  1.88867249135E-05
  1.91361008435E-05  1.93886135364E-05  1.96443024480E-05  1.99032075303E-05
  2.01653692374E-05  2.04308285330E-05  2.06996268955E-05  2.09718063251E-05
  2.12474093505E-05  2.15264790351E-05  2.18090589844E-05  2.20951933518E-05
  2.23849268464E-05  2.26783047398E-05  2.29753728728E-05  2.32761776629E-05
  2.35807661115E-05  2.38891858111E-05  2.42014849530E-05  2.45177123345E-05
  2.48379173668E-05  2.51621500826E-05  2.54904611439E-05  2.58229018499E-05
  2.61595241453E-05  2.65003806279E-05  2.68455245573E-05  2.71950098628E-05
  2.75488911523E-05  2.79072237204E-05  2.82700635575E-05  2.86374673578E-05
  2.90094925290E-05  2.93861972008E-05  2.97676402340E-05  3.01538812300E-05
  3.05449805396E-05  3.09409992730E-05  3.13419993088E-05  3.17480433040E-05
  3.21591947041E-05  3.25755177520E-05  3.29970774994E-05  3.34239398154E-05
  3.38561713985E-05  3.42938397856E-05  3.47370133633E-05  3.51857613784E-05
  3.56401539486E-05  3.61002620738E-05  3.65661576466E-05  3.70379134645E-05
  3.75156032399E-05  3.79993016131E-05  3.84890841629E-05  3.89850274186E-05
  3.94872088726E-05  3.99957069918E-05  4.05106012298E-05  4.10319720400E-05
  4.15599008878E-05  4.20944702629E-05  4.26357636930E-05  4.31838657564E-05