<UPF version="2.0.1">
  <PP_INFO>
    Generated using FHI98PP, converted with fhi2upf.x v.5.0.2
    Author: unknown
    Generation date: unknown
    Pseudopotential type: SL
    Element: B
    Functional: PZ

    Suggested minimum cutoff for wavefunctions:   0. Ry
    Suggested minimum cutoff for charge density:   0. Ry
    The Pseudo was generated with a Scalar-Relativistic Calculation
    L component and cutoff radius for Local Potential:  2   0.0000

    Valence configuration: 
    nl pn  l   occ       Rcut    Rcut US       E pseu
    2s  2  0  2.00      0.000      0.000     0.000000
    2p  2  1  0.75      0.000      0.000     0.000000
    3d  3  2  0.25      0.000      0.000     0.000000

    Generation configuration: not available.
    Comment:
    Info: automatically converted from FHI format


   pg B
   type=tm2
 n=B  c=car
    0.0
    1    3
    2    0      2.00
    2    1      0.75
    3    2      0.25
    1.671     1.671     1.671     0.00       0.00      0.00


[kioup@Macbook] [11:51:05] [~/code/atom-5.70/B] $ fhi2upf.x 
     Input file > OUTPUT.cpi
Pseudopotential without NLCC successfully read
Atom name > B
DFT > PZ
Confirm or modify l max, l loc (read:  2 -1) > 2 2
PPs in FHI format do not contain information on atomic valence (pseudo-)wavefunctions
Provide the label and the occupancy for each atomic wavefunction used in the PP generation
If unknown: list valence wfcts and occupancies for the atomic ground state in increasing l order: s,p,d,f
Wavefunction # 1: label (e.g. 4s), occupancy > 2s, 2.00
Wavefunction # 2: label (e.g. 4s), occupancy > 2p, 0.75
Wavefunction # 3: label (e.g. 4s), occupancy > 3d, 0.25
Pseudopotential successfully converted
Output PP file in UPF format :  OUTPUT.cpi.UPF

  </PP_INFO>
  <!--                               -->
  <!-- END OF HUMAN READABLE SECTION -->
  <!--                               -->
  <PP_HEADER generated="Generated using FHI98PP, converted with fhi2upf.x v.5.0.2"
             author="unknown"
             date="unknown"
             comment="Info: automatically converted from FHI format"
             element="B "
             pseudo_type="SL"
             relativistic="scalar"
             is_ultrasoft="F"
             is_paw="F"
             is_coulomb="F"
             has_so="F"
             has_wfc="F"
             has_gipaw="F"
             paw_as_gipaw="F"
             core_correction="F"
             functional="PZ"
             z_valence="3.000000000000000E+000"
             total_psenergy="0.000000000000000E+000"
             wfc_cutoff="0.000000000000000E+000"
             rho_cutoff="0.000000000000000E+000"
             l_max="1"
             l_max_rho="0"
             l_local="2"
             mesh_size="991"
             number_of_wfc="3"
             number_of_proj="2"/>
  <PP_MESH dx="1.250000000000004E-002" mesh="991" xmin="-Infinity" rmax="1.188732639980000E+002" zmesh="0.000000000000000E+000">
    <PP_R type="real" size="991" columns="4">
 6.235772827090000E-006  1.254998202050000E-005  1.894361418830000E-005  2.541766834840000E-005 
 3.197315608510000E-005  3.861110170660000E-005  4.533254240550000E-005  5.213852842040000E-005 
 5.903012320060000E-005  6.600840357180000E-005  7.307445990449999E-005  8.022939628440000E-005 
 8.747433068480000E-005  9.481039514140000E-005  1.022387359290000E-004  1.097605137420000E-004 
 1.173769038720000E-004  1.250890963970000E-004  1.328982963610000E-004  1.408057239690000E-004 
 1.488126147710000E-004  1.569202198620000E-004  1.651298060700000E-004  1.734426561610000E-004 
 1.818600690340000E-004  1.903833599260000E-004  1.990138606200000E-004  2.077529196490000E-004 
 2.166019025080000E-004  2.255621918700000E-004  2.346351877970000E-004  2.438223079630000E-004 
 2.531249878760000E-004  2.625446810960000E-004  2.720828594720000E-004  2.817410133620000E-004 
 2.915206518730000E-004  3.014233030920000E-004  3.114505143310000E-004  3.216038523600000E-004 
 3.318849036590000E-004  3.422952746640000E-004  3.528365920160000E-004  3.635105028170000E-004 
 3.743186748880000E-004  3.852627970280000E-004  3.963445792780000E-004  4.075657531890000E-004 
 4.189280720920000E-004  4.304333113730000E-004  4.420832687490000E-004  4.538797645490000E-004 
 4.658246420000000E-004  4.779197675130000E-004  4.901670309760000E-004  5.025683460490000E-004 
 5.151256504620000E-004  5.278409063210000E-004  5.407161004100000E-004  5.537532445030000E-004 
 5.669543756820000E-004  5.803215566490000E-004  5.938568760540000E-004  6.075624488190001E-004 
 6.214404164660000E-004  6.354929474570000E-004  6.497222375280000E-004  6.641305100350000E-004 
 6.787200162990000E-004  6.934930359610000E-004  7.084518773350000E-004  7.235988777700000E-004 
 7.389364040160000E-004  7.544668525920000E-004  7.701926501640000E-004  7.861162539180000E-004 
 8.022401519500000E-004  8.185668636530000E-004  8.350989401070000E-004  8.518389644840000E-004 
 8.687895524460000E-004  8.859533525580000E-004  9.033330466970000E-004  9.209313504770000E-004 
 9.387510136680000E-004  9.567948206300000E-004  9.750655907420000E-004  9.935661788520000E-004 
 1.012299475710000E-003  1.031268408440000E-003  1.050475940970000E-003  1.069925074510000E-003 
 1.089618848040000E-003  1.109560338750000E-003  1.129752662530000E-003  1.150198974470000E-003 
 1.170902469360000E-003  1.191866382160000E-003  1.213093988510000E-003  1.234588605290000E-003 
 1.256353591060000E-003  1.278392346650000E-003  1.300708315660000E-003  1.323304985010000E-003 
 1.346185885460000E-003  1.369354592210000E-003  1.392814725420000E-003  1.416569950780000E-003 
 1.440623980080000E-003  1.464980571830000E-003  1.489643531790000E-003  1.514616713590000E-003 
 1.539904019360000E-003  1.565509400270000E-003  1.591436857220000E-003  1.617690441440000E-003 
 1.644274255090000E-003  1.671192451950000E-003  1.698449238050000E-003  1.726048872320000E-003 
 1.753995667240000E-003  1.782293989570000E-003  1.810948260980000E-003  1.839962958750000E-003 
 1.869342616490000E-003  1.899091824830000E-003  1.929215232140000E-003  1.959717545280000E-003 
 1.990603530280000E-003  2.021878013150000E-003  2.053545880590000E-003  2.085612080760000E-003 
 2.118081624080000E-003  2.150959583970000E-003  2.184251097690000E-003  2.217961367110000E-003 
 2.252095659510000E-003  2.286659308450000E-003  2.321657714580000E-003  2.357096346470000E-003 
 2.392980741460000E-003  2.429316506590000E-003  2.466109319370000E-003  2.503364928760000E-003 
 2.541089156030000E-003  2.579287895670000E-003  2.617967116300000E-003  2.657132861640000E-003 
 2.696791251400000E-003  2.736948482300000E-003  2.777610828980000E-003  2.818784645020000E-003 
 2.860476363910000E-003  2.902692500060000E-003  2.945439649840000E-003  2.988724492570000E-003 
 3.032553791590000E-003  3.076934395330000E-003  3.121873238340000E-003  3.167377342410000E-003 
 3.213453817650000E-003  3.260109863600000E-003  3.307352770370000E-003  3.355189919740000E-003 
 3.403628786390000E-003  3.452676938970000E-003  3.502342041350000E-003  3.552631853830000E-003 
 3.603554234270000E-003  3.655117139410000E-003  3.707328626050000E-003  3.760196852340000E-003 
 3.813730079060000E-003  3.867936670880000E-003  3.922825097680000E-003  3.978403935900000E-003 
 4.034681869840000E-003  4.091667693050000E-003  4.149370309680000E-003  4.207798735870000E-003 
 4.266962101190000E-003  4.326869650030000E-003  4.387530743070000E-003  4.448954858730000E-003 
 4.511151594660000E-003  4.574130669210000E-003  4.637901923000000E-003  4.702475320420000E-003 
 4.767860951180000E-003  4.834069031940000E-003  4.901109907830000E-003  4.968994054130000E-003 
 5.037732077870000E-003  5.107334719510000E-003  5.177812854610000E-003  5.249177495510000E-003 
 5.321439793100000E-003  5.394611038490000E-003  5.468702664840000E-003  5.543726249130000E-003 
 5.619693513940000E-003  5.696616329300000E-003  5.774506714570000E-003  5.853376840280000E-003 
 5.933239030040000E-003  6.014105762490000E-003  6.095989673210000E-003  6.178903556730000E-003 
 6.262860368520000E-003  6.347873227000000E-003  6.433955415600000E-003  6.521120384840000E-003 
 6.609381754410000E-003  6.698753315350000E-003  6.789249032140000E-003  6.880883044910000E-003 
 6.973669671680000E-003  7.067623410530000E-003  7.162758941940000E-003  7.259091131010000E-003 
 7.356635029860000E-003  7.455405879910000E-003  7.555419114310000E-003  7.656690360340000E-003 
 7.759235441830000E-003  7.863070381650000E-003  7.968211404230000E-003  8.074674938070001E-003 
 8.182477618320000E-003  8.291636289350000E-003  8.402168007430001E-003  8.514090043379999E-003 
 8.627419885229999E-003  8.742175241000001E-003  8.858374041460001E-003  8.976034442890000E-003 
 9.095174829990000E-003  9.215813818670000E-003  9.337970259019999E-003  9.461663238239999E-003 
 9.586912083600000E-003  9.713736365500001E-003  9.842155900480000E-003  9.972190754350000E-003 
 1.010386124530000E-002  1.023718794720000E-002  1.037219169250000E-002  1.050889357590000E-002 
 1.064731495740000E-002  1.078747746540000E-002  1.092940300080000E-002  1.107311373960000E-002 
 1.121863213700000E-002  1.136598093060000E-002  1.151518314370000E-002  1.166626208970000E-002 
 1.181924137490000E-002  1.197414490260000E-002  1.213099687680000E-002  1.228982180600000E-002 
 1.245064450690000E-002  1.261349010830000E-002  1.277838405520000E-002  1.294535211260000E-002 
 1.311442036970000E-002  1.328561524360000E-002  1.345896348400000E-002  1.363449217680000E-002 
 1.381222874870000E-002  1.399220097150000E-002  1.417443696620000E-002  1.435896520750000E-002 
 1.454581452840000E-002  1.473501412440000E-002  1.492659355830000E-002  1.512058276490000E-002 
 1.531701205530000E-002  1.551591212200000E-002  1.571731404360000E-002  1.592124928940000E-002 
 1.612774972490000E-002  1.633684761610000E-002  1.654857563500000E-002  1.676296686450000E-002 
 1.698005480380000E-002  1.719987337310000E-002  1.742245691960000E-002  1.764784022250000E-002 
 1.787605849840000E-002  1.810714740680000E-002  1.834114305580000E-002  1.857808200780000E-002 
 1.881800128490000E-002  1.906093837490000E-002  1.930693123740000E-002  1.955601830920000E-002 
 1.980823851070000E-002  2.006363125170000E-002  2.032223643800000E-002  2.058409447700000E-002 
 2.084924628480000E-002  2.111773329160000E-002  2.138959744930000E-002  2.166488123710000E-002 
 2.194362766870000E-002  2.222588029880000E-002  2.251168322990000E-002  2.280108111940000E-002 
 2.309411918610000E-002  2.339084321800000E-002  2.369129957880000E-002  2.399553521530000E-002 
 2.430359766500000E-002  2.461553506330000E-002  2.493139615110000E-002  2.525123028220000E-002 
 2.557508743150000E-002  2.590301820220000E-002  2.623507383430000E-002  2.657130621200000E-002 
 2.691176787240000E-002  2.725651201330000E-002  2.760559250160000E-002  2.795906388200000E-002 
 2.831698138500000E-002  2.867940093590000E-002  2.904637916360000E-002  2.941797340920000E-002 
 2.979424173500000E-002  3.017524293370000E-002  3.056103653740000E-002  3.095168282740000E-002 
 3.134724284280000E-002  3.174777839060000E-002  3.215335205550000E-002  3.256402720900000E-002 
 3.297986802000000E-002  3.340093946460000E-002  3.382730733590000E-002  3.425903825480000E-002 
 3.469619968010000E-002  3.513885991920000E-002  3.558708813880000E-002  3.604095437520000E-002 
 3.650052954610000E-002  3.696588546110000E-002  3.743709483280000E-002  3.791423128880000E-002 
 3.839736938260000E-002  3.888658460550000E-002  3.938195339840000E-002  3.988355316360000E-002 
 4.039146227720000E-002  4.090576010090000E-002  4.142652699490000E-002  4.195384433000000E-002 
 4.248779450070000E-002  4.302846093770000E-002  4.357592812130000E-002  4.413028159440000E-002 
 4.469160797570000E-002  4.525999497370000E-002  4.583553140000000E-002  4.641830718340000E-002 
 4.700841338380000E-002  4.760594220630000E-002  4.821098701630000E-002  4.882364235300000E-002 
 4.944400394520000E-002  5.007216872560000E-002  5.070823484630000E-002  5.135230169380000E-002 
 5.200446990500000E-002  5.266484138250000E-002  5.333351931050000E-002  5.401060817150000E-002 
 5.469621376190000E-002  5.539044320890000E-002  5.609340498750000E-002  5.680520893670000E-002 
 5.752596627740000E-002  5.825578962940000E-002  5.899479302900000E-002  5.974309194710000E-002 
 6.050080330690000E-002  6.126804550230000E-002  6.204493841640000E-002  6.283160344050000E-002 
 6.362816349240000E-002  6.443474303629999E-002  6.525146810200000E-002  6.607846630430000E-002 
 6.691586686339999E-002  6.776380062490001E-002  6.862240008010000E-002  6.949179938690001E-002 
 7.037213439080001E-002  7.126354264590000E-002  7.216616343649999E-002  7.308013779899999E-002 
 7.400560854370000E-002  7.494272027730001E-002  7.589161942550000E-002  7.685245425560000E-002 
 7.782537489999999E-002  7.881053337970000E-002  7.980808362750000E-002  8.081818151280000E-002 
 8.184098486539999E-002  8.287665350039999E-002  8.392534924309999E-002  8.498723595440000E-002 
 8.606247955630000E-002  8.715124805770000E-002  8.825371158089999E-002  8.937004238809999E-002 
 9.050041490830001E-002  9.164500576450001E-002  9.280399380120000E-002  9.397756011290000E-002 
 9.516588807150000E-002  9.636916335570000E-002  9.758757397980000E-002  9.882131032289999E-002 
 1.000705651590000E-001  1.013355336860000E-001  1.026164135590000E-001  1.039134049170000E-001 
 1.052267104180000E-001  1.065565352680000E-001  1.079030872570000E-001  1.092665767830000E-001 
 1.106472168970000E-001  1.120452233260000E-001  1.134608145110000E-001  1.148942116410000E-001 
 1.163456386870000E-001  1.178153224380000E-001  1.193034925350000E-001  1.208103815070000E-001 
 1.223362248090000E-001  1.238812608580000E-001  1.254457310670000E-001  1.270298798890000E-001 
 1.286339548500000E-001  1.302582065910000E-001  1.319028889030000E-001  1.335682587720000E-001 
 1.352545764150000E-001  1.369621053230000E-001  1.386911123000000E-001  1.404418675080000E-001 
 1.422146445060000E-001  1.440097202930000E-001  1.458273753540000E-001  1.476678937010000E-001 
 1.495315629190000E-001  1.514186742100000E-001  1.533295224380000E-001  1.552644061790000E-001 
 1.572236277610000E-001  1.592074933170000E-001  1.612163128290000E-001  1.632504001800000E-001 
 1.653100732010000E-001  1.673956537190000E-001  1.695074676100000E-001  1.716458448500000E-001 
 1.738111195640000E-001  1.760036300820000E-001  1.782237189860000E-001  1.804717331720000E-001 
 1.827480238950000E-001  1.850529468300000E-001  1.873868621270000E-001  1.897501344650000E-001 
 1.921431331090000E-001  1.945662319700000E-001  1.970198096630000E-001  1.995042495650000E-001 
 2.020199398730000E-001  2.045672736700000E-001  2.071466489810000E-001  2.097584688400000E-001 
 2.124031413480000E-001  2.150810797420000E-001  2.177927024530000E-001  2.205384331800000E-001 
 2.233187009470000E-001  2.261339401780000E-001  2.289845907590000E-001  2.318710981100000E-001 
 2.347939132540000E-001  2.377534928870000E-001  2.407502994490000E-001  2.437848011970000E-001 
 2.468574722780000E-001  2.499687928030000E-001  2.531192489230000E-001  2.563093329020000E-001 
 2.595395431980000E-001  2.628103845380000E-001  2.661223679970000E-001  2.694760110800000E-001 
 2.728718377990000E-001  2.763103787610000E-001  2.797921712430000E-001  2.833177592830000E-001 
 2.868876937620000E-001  2.905025324880000E-001  2.941628402880000E-001  2.978691890930000E-001 
 3.016221580260000E-001  3.054223334970000E-001  3.092703092910000E-001  3.131666866630000E-001 
 3.171120744280000E-001  3.211070890620000E-001  3.251523547940000E-001  3.292485037050000E-001 
 3.333961758260000E-001  3.375960192400000E-001  3.418486901820000E-001  3.461548531380000E-001 
 3.505151809570000E-001  3.549303549470000E-001  3.594010649900000E-001  3.639280096430000E-001 
 3.685118962490000E-001  3.731534410510000E-001  3.778533692990000E-001  3.826124153670000E-001 
 3.874313228660000E-001  3.923108447590000E-001  3.972517434810000E-001  4.022547910590000E-001 
 4.073207692280000E-001  4.124504695580000E-001  4.176446935750000E-001  4.229042528870000E-001 
 4.282299693110000E-001  4.336226750010000E-001  4.390832125790000E-001  4.446124352630000E-001 
 4.502112070070000E-001  4.558804026310000E-001  4.616209079560000E-001  4.674336199500000E-001 
 4.733194468600000E-001  4.792793083580000E-001  4.853141356860000E-001  4.914248717960000E-001 
 4.976124715050000E-001  5.038779016360000E-001  5.102221411770000E-001  5.166461814280000E-001 
 5.231510261570000E-001  5.297376917610001E-001  5.364072074190001E-001  5.431606152560000E-001 
 5.499989705070000E-001  5.569233416780000E-001  5.639348107160000E-001  5.710344731770000E-001 
 5.782234383990000E-001  5.855028296710000E-001  5.928737844140000E-001  6.003374543540000E-001 
 6.078950057040000E-001  6.155476193480000E-001  6.232964910220000E-001  6.311428315030000E-001 
 6.390878667970000E-001  6.471328383320000E-001  6.552790031520001E-001  6.635276341120000E-001 
 6.718800200760000E-001  6.803374661229999E-001  6.889012937450000E-001  6.975728410570000E-001 
 7.063534630070000E-001  7.152445315850000E-001  7.242474360380000E-001  7.333635830890000E-001 
 7.425943971530000E-001  7.519413205650000E-001  7.614058138000001E-001  7.709893557040000E-001 
 7.806934437260000E-001  7.905195941490000E-001  8.004693423290000E-001  8.105442429340000E-001 
 8.207458701880000E-001  8.310758181160000E-001  8.415357007930000E-001  8.521271525980000E-001 
 8.628518284670000E-001  8.737114041510000E-001  8.847075764810000E-001  8.958420636320000E-001 
 9.071166053910000E-001  9.185329634260000E-001  9.300929215680001E-001  9.417982860830000E-001 
 9.536508859580000E-001  9.656525731870000E-001  9.778052230560000E-001  9.901107344440000E-001 
 1.002571030110000E+000  1.015188057000000E+000  1.027963786550000E+000  1.040900215000000E+000 
 1.053999363690000E+000  1.067263279380000E+000  1.080694034590000E+000  1.094293727910000E+000 
 1.108064484310000E+000  1.122008455500000E+000  1.136127820260000E+000  1.150424784770000E+000 
 1.164901582940000E+000  1.179560476830000E+000  1.194403756900000E+000  1.209433742450000E+000 
 1.224652781940000E+000  1.240063253390000E+000  1.255667564700000E+000  1.271468154090000E+000 
 1.287467490420000E+000  1.303668073630000E+000  1.320072435090000E+000  1.336683138020000E+000 
 1.353502777870000E+000  1.370533982740000E+000  1.387779413800000E+000  1.405241765680000E+000 
 1.422923766910000E+000  1.440828180330000E+000  1.458957803550000E+000  1.477315469350000E+000 
 1.495904046170000E+000  1.514726438490000E+000  1.533785587370000E+000  1.553084470830000E+000 
 1.572626104350000E+000  1.592413541370000E+000  1.612449873710000E+000  1.632738232080000E+000 
 1.653281786580000E+000  1.674083747190000E+000  1.695147364250000E+000  1.716475929000000E+000 
 1.738072774070000E+000  1.759941274000000E+000  1.782084845800000E+000  1.804506949450000E+000 
 1.827211088440000E+000  1.850200810350000E+000  1.873479707350000E+000  1.897051416840000E+000 
 1.920919621930000E+000  1.945088052080000E+000  1.969560483650000E+000  1.994340740530000E+000 
 2.019432694660000E+000  2.044840266720000E+000  2.070567426700000E+000  2.096618194510000E+000 
 2.122996640640000E+000  2.149706886780000E+000  2.176753106450000E+000  2.204139525690000E+000 
 2.231870423680000E+000  2.259950133420000E+000  2.288383042430000E+000  2.317173593410000E+000 
 2.346326284940000E+000  2.375845672180000E+000  2.405736367610000E+000  2.436003041710000E+000 
 2.466650423690000E+000  2.497683302290000E+000  2.529106526440000E+000  2.560925006100000E+000 
 2.593143712960000E+000  2.625767681260000E+000  2.658802008570000E+000  2.692251856570000E+000 
 2.726122451850000E+000  2.760419086780000E+000  2.795147120270000E+000  2.830311978640000E+000 
 2.865919156480000E+000  2.901974217480000E+000  2.938482795320000E+000  2.975450594540000E+000 
 3.012883391430000E+000  3.050787034940000E+000  3.089167447590000E+000  3.128030626400000E+000 
 3.167382643830000E+000  3.207229648700000E+000  3.247577867180000E+000  3.288433603780000E+000 
 3.329803242290000E+000  3.371693246780000E+000  3.414110162670000E+000  3.457060617680000E+000 
 3.500551322900000E+000  3.544589073860000E+000  3.589180751530000E+000  3.634333323450000E+000 
 3.680053844820000E+000  3.726349459540000E+000  3.773227401420000E+000  3.820694995210000E+000 
 3.868759657830000E+000  3.917428899480000E+000  3.966710324830000E+000  4.016611634200000E+000 
 4.067140624770000E+000  4.118305191800000E+000  4.170113329860000E+000  4.222573134070000E+000 
 4.275692801390000E+000  4.329480631870000E+000  4.383945029960000E+000  4.439094505850000E+000 
 4.494937676750000E+000  4.551483268270000E+000  4.608740115770000E+000  4.666717165750000E+000 
 4.725423477250000E+000  4.784868223240000E+000  4.845060692090000E+000  4.906010288990000E+000 
 4.967726537440000E+000  5.030219080730000E+000  5.093497683450000E+000  5.157572233000000E+000 
 5.222452741180000E+000  5.288149345680000E+000  5.354672311730000E+000  5.422032033700000E+000 
 5.490239036660000E+000  5.559303978100000E+000  5.629237649560000E+000  5.700050978320000E+000 
 5.771755029100000E+000  5.844361005810000E+000  5.917880253280000E+000  5.992324259040000E+000 
 6.067704655130000E+000  6.144033219870000E+000  6.221321879760000E+000  6.299582711310000E+000 
 6.378827942950000E+000  6.459069956890000E+000  6.540321291110000E+000  6.622594641300000E+000 
 6.705902862840000E+000  6.790258972810000E+000  6.875676152020000E+000  6.962167747090000E+000 
 7.049747272480000E+000  7.138428412700000E+000  7.228225024330000E+000  7.319151138300000E+000 
 7.411220961980000E+000  7.504448881480000E+000  7.598849463850000E+000  7.694437459370000E+000 
 7.791227803860000E+000  7.889235621000000E+000  7.988476224730000E+000  8.088965121579999E+000 
 8.190718013150001E+000  8.293750798530001E+000  8.398079576810000E+000  8.503720649580000E+000 
 8.610690523460001E+000  8.719005912709999E+000  8.828683741840001E+000  8.939741148220000E+000 
 9.052195484820000E+000  9.166064322830000E+000  9.281365454510000E+000  9.398116895879999E+000 
 9.516336889600000E+000  9.636043907780000E+000  9.757256654890000E+000  9.879994070670000E+000 
 1.000427533310000E+001  1.013011986130000E+001  1.025754731890000E+001  1.038657761650000E+001 
 1.051723091550000E+001  1.064952763070000E+001  1.078348843370000E+001  1.091913425620000E+001 
 1.105648629310000E+001  1.119556600590000E+001  1.133639512610000E+001  1.147899565870000E+001 
 1.162338988510000E+001  1.176960036720000E+001  1.191764995090000E+001  1.206756176900000E+001 
 1.221935924570000E+001  1.237306609960000E+001  1.252870634780000E+001  1.268630430920000E+001 
 1.284588460890000E+001  1.300747218180000E+001  1.317109227600000E+001  1.333677045770000E+001 
 1.350453261440000E+001  1.367440495930000E+001  1.384641403520000E+001  1.402058671890000E+001 
 1.419695022530000E+001  1.437553211150000E+001  1.455636028130000E+001  1.473946298950000E+001 
 1.492486884620000E+001  1.511260682150000E+001  1.530270624980000E+001  1.549519683460000E+001 
 1.569010865290000E+001  1.588747216000000E+001  1.608731819450000E+001  1.628967798260000E+001 
 1.649458314340000E+001  1.670206569400000E+001  1.691215805370000E+001  1.712489305000000E+001 
 1.734030392310000E+001  1.755842433150000E+001  1.777928835690000E+001  1.800293050970000E+001 
 1.822938573440000E+001  1.845868941530000E+001  1.869087738140000E+001  1.892598591250000E+001 
 1.916405174500000E+001  1.940511207700000E+001  1.964920457460000E+001  1.989636737800000E+001 
 2.014663910660000E+001  2.040005886610000E+001  2.065666625380000E+001  2.091650136500000E+001 
 2.117960479960000E+001  2.144601766800000E+001  2.171578159770000E+001  2.198893874000000E+001 
 2.226553177610000E+001  2.254560392440000E+001  2.282919894660000E+001  2.311636115500000E+001 
 2.340713541940000E+001  2.370156717370000E+001  2.399970242360000E+001  2.430158775330000E+001 
 2.460727033300000E+001  2.491679792620000E+001  2.523021889720000E+001  2.554758221880000E+001 
 2.586893747950000E+001  2.619433489170000E+001  2.652382529960000E+001  2.685746018660000E+001 
 2.719529168380000E+001  2.753737257810000E+001  2.788375632040000E+001  2.823449703390000E+001 
 2.858964952230000E+001  2.894926927920000E+001  2.931341249570000E+001  2.968213607010000E+001 
 3.005549761600000E+001  3.043355547210000E+001  3.081636871060000E+001  3.120399714680000E+001 
 3.159650134860000E+001  3.199394264540000E+001  3.239638313840000E+001  3.280388570950000E+001 
 3.321651403210000E+001  3.363433257990000E+001  3.405740663820000E+001  3.448580231290000E+001 
 3.491958654190000E+001  3.535882710490000E+001  3.580359263390000E+001  3.625395262460000E+001 
 3.670997744660000E+001  3.717173835480000E+001  3.763930750010000E+001  3.811275794130000E+001 
 3.859216365590000E+001  3.907759955210000E+001  3.956914148010000E+001  4.006686624450000E+001 
 4.057085161570000E+001  4.108117634250000E+001  4.159792016420000E+001  4.212116382290000E+001 
 4.265098907670000E+001  4.318747871170000E+001  4.373071655560000E+001  4.428078749040000E+001 
 4.483777746580000E+001  4.540177351260000E+001  4.597286375640000E+001  4.655113743110000E+001 
 4.713668489320000E+001  4.772959763570000E+001  4.832996830240000E+001  4.893789070240000E+001 
 4.955345982490000E+001  5.017677185370000E+001  5.080792418270000E+001  5.144701543070000E+001 
 5.209414545700000E+001  5.274941537700000E+001  5.341292757780000E+001  5.408478573480000E+001 
 5.476509482700000E+001  5.545396115420000E+001  5.615149235310000E+001  5.685779741430000E+001 
 5.757298669960000E+001  5.829717195860000E+001  5.903046634680000E+001  5.977298444300000E+001 
 6.052484226700000E+001  6.128615729820000E+001  6.205704849370000E+001  6.283763630670000E+001 
 6.362804270570000E+001  6.442839119330000E+001  6.523880682550001E+001  6.605941623149999E+001 
 6.689034763310001E+001  6.773173086520001E+001  6.858369739539999E+001  6.944638034530000E+001 
 7.031991451090001E+001  7.120443638370000E+001  7.210008417200000E+001  7.300699782260000E+001 
 7.392531904259999E+001  7.485519132160000E+001  7.579675995400000E+001  7.675017206180000E+001 
 7.771557661759999E+001  7.869312446780000E+001  7.968296835629999E+001  8.068526294810000E+001 
 8.170016485390001E+001  8.272783265420000E+001  8.376842692400000E+001  8.482211025850000E+001 
 8.588904729780000E+001  8.696940475280000E+001  8.806335143180000E+001  8.917105826610000E+001 
 9.029269833710001E+001  9.142844690330000E+001  9.257848142790000E+001  9.374298160600000E+001 
 9.492212939320000E+001  9.611610903370000E+001  9.732510708920000E+001  9.854931246820000E+001 
 9.978891645520000E+001  1.010441127410000E+002  1.023150974520000E+002  1.036020691830000E+002 
 1.049052290260000E+002  1.062247806010000E+002  1.075609300920000E+002  1.089138862750000E+002 
 1.102838605510000E+002  1.116710669830000E+002  1.130757223230000E+002  1.144980460520000E+002 
 1.159382604120000E+002  1.173965904380000E+002  1.188732639980000E+002
    </PP_R>
    <PP_RAB type="real" size="991" columns="4">
 7.794716033862524E-008  1.568747752562505E-007  2.367951773537507E-007  3.177208543550010E-007 
 3.996644510637512E-007  4.826387713325015E-007  5.666567800687518E-007  6.517316052550020E-007 
 7.378765400075023E-007  8.251050446475025E-007  9.134307488062527E-007  1.002867453555003E-006 
 1.093429133560003E-006  1.185129939267504E-006  1.277984199112504E-006  1.372006421775004E-006 
 1.467211298400005E-006  1.563613704962505E-006  1.661228704512505E-006  1.760071549612505E-006 
 1.860157684637506E-006  1.961502748275006E-006  2.064122575875006E-006  2.168033202012507E-006 
 2.273250862925007E-006  2.379791999075007E-006  2.487673257750008E-006  2.596911495612508E-006 
 2.707523781350009E-006  2.819527398375009E-006  2.932939847462509E-006  3.047778849537509E-006 
 3.164062348450010E-006  3.281808513700010E-006  3.401035743400011E-006  3.521762667025011E-006 
 3.644008148412511E-006  3.767791288650012E-006  3.893131429137512E-006  4.020048154500012E-006 
 4.148561295737513E-006  4.278690933300013E-006  4.410457400200014E-006  4.543881285212514E-006 
 4.678983436100014E-006  4.815784962850015E-006  4.954307240975016E-006  5.094571914862516E-006 
 5.236600901150016E-006  5.380416392162517E-006  5.526040859362518E-006  5.673497056862517E-006 
 5.822808025000018E-006  5.973997093912518E-006  6.127087887200019E-006  6.282104325612520E-006 
 6.439070630775019E-006  6.598011329012521E-006  6.758951255125021E-006  6.921915556287522E-006 
 7.086929696025022E-006  7.254019458112522E-006  7.423210950675023E-006  7.594530610237524E-006 
 7.768005205825025E-006  7.943661843212525E-006  8.121527969100026E-006  8.301631375437525E-006 
 8.484000203737526E-006  8.668662949512528E-006  8.855648466687527E-006  9.044985972125029E-006 
 9.236705050200029E-006  9.430835657400030E-006  9.627408127050030E-006  9.826453173975031E-006 
 1.002800189937503E-005  1.023208579566253E-005  1.043873675133753E-005  1.064798705605003E-005 
 1.085986940557503E-005  1.107441690697504E-005  1.129166308371253E-005  1.151164188096254E-005 
 1.173438767085004E-005  1.195993525787504E-005  1.218831988427504E-005  1.241957723565004E-005 
 1.265374344637504E-005  1.289085510550004E-005  1.313094926212504E-005  1.337406343137504E-005 
 1.362023560050004E-005  1.386950423437504E-005  1.412190828162504E-005  1.437748718087504E-005 
 1.463628086700005E-005  1.489832977700005E-005  1.516367485637505E-005  1.543235756612505E-005 
 1.570441988825005E-005  1.597990433312505E-005  1.625885394575005E-005  1.654131231262505E-005 
 1.682732356825005E-005  1.711693240262505E-005  1.741018406775005E-005  1.770712438475005E-005 
 1.800779975100006E-005  1.831225714787506E-005  1.862054414737506E-005  1.893270891987506E-005 
 1.924880024200006E-005  1.956886750337506E-005  1.989296071525006E-005  2.022113051800006E-005 
 2.055342818862506E-005  2.088990564937506E-005  2.123061547562506E-005  2.157561090400007E-005 