 
             +---------------------------------------------------+
             |                                                   |
             |                   WANNIER90                       |
             |                                                   |
             +---------------------------------------------------+
             |                                                   |
             |        Welcome to the Maximally-Localized         |
             |        Generalized Wannier Functions code         |
             |            http://www.wannier.org                 |
             |                                                   |
             |                                                   |
             |  Wannier90 Developer Group:                       |
             |    Giovanni Pizzi    (EPFL)                       |
             |    Valerio Vitale    (Cambridge)                  |
             |    David Vanderbilt  (Rutgers University)         |
             |    Nicola Marzari    (EPFL)                       |
             |    Ivo Souza         (Universidad del Pais Vasco) |
             |    Arash A. Mostofi  (Imperial College London)    |
             |    Jonathan R. Yates (University of Oxford)       |
             |                                                   |
             |  For the full list of Wannier90 3.x authors,      |
             |  please check the code documentation and the      |
             |  README on the GitHub page of the code            |
             |                                                   |
             |                                                   |
             |  Please cite                                      |
             |                                                   |
             |  [ref] "Wannier90 as a community code:            |
             |        new features and applications",            |
             |        G. Pizzi et al., J. Phys. Cond. Matt. 32,  |
             |        165902 (2020).                             |
             |        http://doi.org/10.1088/1361-648X/ab51ff    |
             |                                                   |
             |  in any publications arising from the use of      |
             |  this code. For the method please cite            |
             |                                                   |
             |  [ref] "Maximally Localized Generalised Wannier   |
             |         Functions for Composite Energy Bands"     |
             |         N. Marzari and D. Vanderbilt              |
             |         Phys. Rev. B 56 12847 (1997)              |
             |                                                   |
             |  [ref] "Maximally Localized Wannier Functions     |
             |         for Entangled Energy Bands"               |
             |         I. Souza, N. Marzari and D. Vanderbilt    |
             |         Phys. Rev. B 65 035109 (2001)             |
             |                                                   |
             |                                                   |
             | Copyright (c) 1996-2020                           |
             |        The Wannier90 Developer Group and          |
             |        individual contributors                    |
             |                                                   |
             |      Release: 3.1.0        5th March    2020      |
             |                                                   |
             | This program is free software; you can            |
             | redistribute it and/or modify it under the terms  |
             | of the GNU General Public License as published by |
             | the Free Software Foundation; either version 2 of |
             | the License, or (at your option) any later version|
             |                                                   |
             | This program is distributed in the hope that it   |
             | will be useful, but WITHOUT ANY WARRANTY; without |
             | even the implied warranty of MERCHANTABILITY or   |
             | FITNESS FOR A PARTICULAR PURPOSE. See the GNU     |
             | General Public License for more details.          |
             |                                                   |
             | You should have received a copy of the GNU General|
             | Public License along with this program; if not,   |
             | write to the Free Software Foundation, Inc.,      |
             | 675 Mass Ave, Cambridge, MA 02139, USA.           |
             |                                                   |
             +---------------------------------------------------+
             |    Execution started on 25Mar2021 at 14:41:18     |
             +---------------------------------------------------+
 
 ******************************************************************************
 * -> Using CODATA 2006 constant values                                       *
 *    (http://physics.nist.gov/cuu/Constants/index.html)                      *
 * -> Using Bohr value from CODATA                                            *
 ******************************************************************************
 

 Running in parallel on  68 CPUs

 
                                    ------
                                    SYSTEM
                                    ------
 
                              Lattice Vectors (Ang)
                    a_1    -2.689422   0.000000   2.689422
                    a_2     0.000000   2.689422   2.689422
                    a_3    -2.689422   2.689422   0.000000
 
                   Unit Cell Volume:      38.90513  (Ang^3)
 
                        Reciprocal-Space Vectors (Ang^-1)
                    b_1    -1.168129  -1.168129   1.168129
                    b_2     1.168129   1.168129   1.168129
                    b_3    -1.168129   1.168129  -1.168129
  
 *----------------------------------------------------------------------------*
 |   Site       Fractional Coordinate          Cartesian Coordinate (Ang)     |
 +----------------------------------------------------------------------------+
 | Si   1  -0.12500  -0.12500  -0.12500   |    0.67236  -0.67236  -0.67236    |
 | Si   2   0.12500   0.12500   0.12500   |   -0.67236   0.67236   0.67236    |
 *----------------------------------------------------------------------------*
                                ------------
                                K-POINT GRID
                                ------------
  
             Grid size =  8 x  8 x  8      Total points =  512
  
  
 *---------------------------------- MAIN ------------------------------------*
 |  Number of Wannier Functions               :                26             |
 |  Number of Objective Wannier Functions     :                26             |
 |  Number of input Bloch states              :                34             |
 |  Output verbosity (1=low, 5=high)          :                 1             |
 |  Timing Level (1=low, 5=high)              :                 1             |
 |  Optimisation (0=memory, 3=speed)          :                 3             |
 |  Length Unit                               :               Ang             |
 |  Post-processing setup (write *.nnkp)      :                 F             |
 |  Using Gamma-only branch of algorithms     :                 F             |
 *----------------------------------------------------------------------------*
 *------------------------------- WANNIERISE ---------------------------------*
 |  Total number of iterations                :             10000             |
 |  Number of CG steps before reset           :                 5             |
 |  Trial step length for line search         :             2.000             |
 |  Convergence tolerence                     :         0.100E-09             |
 |  Convergence window                        :                -1             |
 |  Iterations between writing output         :               500             |
 |  Iterations between backing up to disk     :               100             |
 |  Write r^2_nm to file                      :                 F             |
 |  Write xyz WF centres to file              :                 F             |
 |  Write on-site energies <0n|H|0n> to file  :                 F             |
 |  Use guiding centre to control phases      :                 F             |
 |  Use phases for initial projections        :                 F             |
 *----------------------------------------------------------------------------*
 *------------------------------- DISENTANGLE --------------------------------*
 |  Using band disentanglement                :                 T             |
 |  Total number of iterations                :             20000             |
 |  Mixing ratio                              :             0.800             |
 |  Convergence tolerence                     :         1.000E-10             |
 |  Convergence window                        :                 3             |
 *----------------------------------------------------------------------------*
 *-------------------------------- PLOTTING ----------------------------------*
 |  Plotting interpolated bandstructure       :                 T             |
 |   Number of K-path sections                :                 5             |
 |   Divisions along first K-path section     :               100             |
 |   Output format                            :           gnuplot             |
 |   Output mode                              :               s-k             |
 *----------------------------------------------------------------------------*
 |   K-space path sections:                                                   |
 |    From: G       0.000  0.000  0.000     To: X       0.500  0.000  0.500   |
 |    From: X       0.500  0.000  0.500     To: W       0.500  0.250  0.750   |
 |    From: W       0.500  0.250  0.750     To: K       0.375  0.375  0.750   |
 |    From: K       0.375  0.375  0.750     To: G       0.000  0.000  0.000   |
 |    From: G       0.000  0.000  0.000     To: L       0.500  0.500  0.500   |
 *----------------------------------------------------------------------------*
 Time to read parameters        0.319 (sec)

 *---------------------------------- K-MESH ----------------------------------*
 +----------------------------------------------------------------------------+
 |                    Distance to Nearest-Neighbour Shells                    |
 |                    ------------------------------------                    |
 |          Shell             Distance (Ang^-1)          Multiplicity         |
 |          -----             -----------------          ------------         |
 |             1                   0.252907                      8            |
 |             2                   0.292032                      6            |
 |             3                   0.412996                     12            |
 |             4                   0.484281                     24            |
 |             5                   0.505815                      8            |
 |             6                   0.584065                      6            |
 |             7                   0.636470                     24            |
 |             8                   0.653004                     24            |
 |             9                   0.715330                     24            |
 |            10                   0.758722                     32            |
 |            11                   0.825992                     12            |
 |            12                   0.863843                     48            |
 |            13                   0.876097                     30            |
 |            14                   0.923487                     24            |
 |            15                   0.957492                     24            |
 |            16                   0.968562                     24            |
 |            17                   1.011630                      8            |
 |            18                   1.042764                     48            |
 |            19                   1.052938                     24            |
 |            20                   1.092685                     48            |
 |            21                   1.121571                     72            |
 |            22                   1.168129                      6            |
 |            23                   1.195194                     24            |
 |            24                   1.204080                     48            |
 |            25                   1.238988                     36            |
 |            26                   1.264537                     56            |
 |            27                   1.272939                     24            |
 |            28                   1.306008                     24            |
 |            29                   1.330271                     72            |
 |            30                   1.338260                     48            |
 |            31                   1.369753                     24            |
 |            32                   1.392905                     48            |
 |            33                   1.430660                     24            |
 |            34                   1.452843                     72            |
 |            35                   1.460162                     30            |
 |            36                   1.489079                     72            |
 +----------------------------------------------------------------------------+
 | The b-vectors are chosen automatically                                     |
 | The following shells are used:   1                                         |
 +----------------------------------------------------------------------------+
 |                        Shell   # Nearest-Neighbours                        |
 |                        -----   --------------------                        |
 |                          1               8                                 |
 +----------------------------------------------------------------------------+
 | Completeness relation is fully satisfied [Eq. (B1), PRB 56, 12847 (1997)]  |
 +----------------------------------------------------------------------------+
 |                  b_k Vectors (Ang^-1) and Weights (Ang^2)                  |
 |                  ----------------------------------------                  |
 |            No.         b_k(x)      b_k(y)      b_k(z)        w_b           |
 |            ---        --------------------------------     --------        |
 |             1        -0.146016    0.146016   -0.146016     5.862841        |
 |             2         0.146016    0.146016    0.146016     5.862841        |
 |             3        -0.146016   -0.146016    0.146016     5.862841        |
 |             4        -0.146016    0.146016    0.146016     5.862841        |
 |             5         0.146016   -0.146016    0.146016     5.862841        |
 |             6        -0.146016   -0.146016   -0.146016     5.862841        |
 |             7         0.146016    0.146016   -0.146016     5.862841        |
 |             8         0.146016   -0.146016   -0.146016     5.862841        |
 +----------------------------------------------------------------------------+
 |                           b_k Directions (Ang^-1)                          |
 |                           -----------------------                          |
 |            No.           x           y           z                         |
 |            ---        --------------------------------                     |
 |             1        -0.146016    0.146016   -0.146016                     |
 |             2         0.146016    0.146016    0.146016                     |
 |             3        -0.146016   -0.146016    0.146016                     |
 |             4        -0.146016    0.146016    0.146016                     |
 +----------------------------------------------------------------------------+
  
 Time to get kmesh              1.720 (sec)
 *============================================================================*
 |                              MEMORY ESTIMATE                               |
 |         Maximum RAM allocated during each phase of the calculation         |
 *============================================================================*
 |                        Disentanglement          134.22 Mb                  |
 |                            Wannierise:          117.00 Mb                  |
 |                          plot_wannier:          117.00 Mb                  |
 *----------------------------------------------------------------------------*
  
 Starting a new Wannier90 calculation ...


 Reading overlaps from Si.mmn    :  Created on  2Mar2021 at 10: 2:48

 Reading projections from Si.amn :  Created on  2Mar2021 at 10: 2:12

 Time to read overlaps         20.212 (sec)

 *------------------------------- DISENTANGLE --------------------------------*
 +----------------------------------------------------------------------------+
 |                              Energy  Windows                               |
 |                              ---------------                               |
 |                   Outer:   -8.00000  to   50.00000  (eV)                   |
 |                   Inner:   -8.00000  to   30.00000  (eV)                   |
 +----------------------------------------------------------------------------+
   Number of target bands to extract:   26

                   Unitarised projection of Wannier functions                  
                   ------------------------------------------                  
   A_mn = <psi_m|g_n> --> S = A.A^+ --> U = S^-1/2.A
   In dis_project... done
   Using an inner window (linner = T)
   In dis_proj_froz... done

                   Extraction of optimally-connected subspace                  
                   ------------------------------------------                  
 +---------------------------------------------------------------------+<-- DIS
 |  Iter     Omega_I(i-1)      Omega_I(i)      Delta (frac.)    Time   |<-- DIS
 +---------------------------------------------------------------------+<-- DIS
       1      65.19208618      53.34646744       2.221E-01      0.00    <-- DIS
       2      52.88112497      47.11960685       1.223E-01      0.02    <-- DIS
       3      47.04335181      43.50730560       8.127E-02      0.04    <-- DIS
       4      43.44191637      41.28430598       5.226E-02      0.06    <-- DIS
       5      41.24079626      39.87146016       3.434E-02      0.07    <-- DIS
       6      39.81827847      38.87385634       2.429E-02      0.09    <-- DIS
       7      38.81835241      38.09107915       1.909E-02      0.11    <-- DIS
       8      38.03731386      37.42038463       1.649E-02      0.13    <-- DIS
       9      37.38227206      36.85980400       1.417E-02      0.15    <-- DIS
      10      36.83562619      36.39739056       1.204E-02      0.17    <-- DIS
      11      36.38131922      36.01311672       1.022E-02      0.18    <-- DIS
      12      36.00314425      35.69636224       8.594E-03      0.20    <-- DIS
      13      35.68934378      35.43033254       7.310E-03      0.22    <-- DIS
      14      35.42446236      35.19804709       6.433E-03      0.24    <-- DIS
      15      35.19274972      34.98624569       5.902E-03      0.26    <-- DIS
      16      34.98177188      34.78710988       5.596E-03      0.28    <-- DIS
      17      34.78371916      34.59680825       5.403E-03      0.30    <-- DIS
      18      34.59489803      34.41552684       5.212E-03      0.31    <-- DIS
      19      34.41545185      34.24624927       4.941E-03      0.33    <-- DIS
      20      34.24780752      34.09090163       4.603E-03      0.35    <-- DIS
      21      34.09348924      33.94928961       4.248E-03      0.37    <-- DIS
      22      33.95246181      33.82049720       3.902E-03      0.39    <-- DIS
      23      33.82399505      33.70356179       3.573E-03      0.41    <-- DIS
      24      33.70722011      33.59753197       3.265E-03      0.42    <-- DIS
      25      33.60122604      33.50143631       2.979E-03      0.44    <-- DIS
      26      33.50507952      33.41430768       2.717E-03      0.46    <-- DIS
      27      33.41784449      33.33523514       2.478E-03      0.48    <-- DIS
      28      33.33863664      33.26340502       2.262E-03      0.50    <-- DIS
      29      33.26665486      33.19810637       2.065E-03      0.52    <-- DIS
      30      33.20119134      33.13870487       1.886E-03      0.54    <-- DIS
      31      33.14161002      33.08461325       1.723E-03      0.55    <-- DIS
      32      33.08732531      33.03527944       1.575E-03      0.57    <-- DIS
      33      33.03779076      32.99018970       1.443E-03      0.59    <-- DIS
      34      32.99249993      32.94887426       1.324E-03      0.61    <-- DIS
      35      32.95098905      32.91090872       1.218E-03      0.63    <-- DIS
      36      32.91283762      32.87591085       1.123E-03      0.65    <-- DIS
      37      32.87766518      32.84353442       1.039E-03      0.66    <-- DIS
      38      32.84512573      32.81346121       9.650E-04      0.68    <-- DIS
      39      32.81490006      32.78539139       9.001E-04      0.70    <-- DIS
      40      32.78668645      32.75903161       8.442E-04      0.72    <-- DIS
      41      32.76018878      32.73407932       7.976E-04      0.74    <-- DIS
      42      32.73510096      32.71020254       7.612E-04      0.76    <-- DIS
      43      32.71108698      32.68701627       7.364E-04      0.78    <-- DIS
      44      32.68775911      32.66406697       7.253E-04      0.80    <-- DIS
      45      32.66466711      32.64085646       7.295E-04      0.82    <-- DIS
      46      32.64133091      32.61695618       7.473E-04      0.83    <-- DIS
      47      32.61735946      32.59221715       7.714E-04      0.85    <-- DIS
      48      32.59264169      32.56693098       7.895E-04      0.87    <-- DIS
      49      32.56746832      32.54174283       7.905E-04      0.89    <-- DIS
      50      32.54243486      32.51735423       7.713E-04      0.91    <-- DIS
      51      32.51818053      32.49424967       7.365E-04      0.93    <-- DIS
      52      32.49515150      32.47258759       6.949E-04      0.94    <-- DIS
      53      32.47349982      32.45223551       6.552E-04      0.96    <-- DIS
      54      32.45310558      32.43285835       6.243E-04      0.98    <-- DIS
      55      32.43364914      32.41398351       6.067E-04      1.00    <-- DIS
      56      32.41466637      32.39500880       6.068E-04      1.02    <-- DIS
      57      32.39555236      32.37514236       6.304E-04      1.04    <-- DIS
      58      32.37550020      32.35327433       6.870E-04      1.06    <-- DIS
      59      32.35338147      32.32785592       7.896E-04      1.07    <-- DIS
      60      32.32767961      32.29721794       9.432E-04      1.09    <-- DIS
      61      32.29697543      32.26138882       1.103E-03      1.11    <-- DIS
      62      32.26174256      32.22425267       1.163E-03      1.13    <-- DIS
      63      32.22556861      32.19044813       1.091E-03      1.15    <-- DIS
      64      32.19224174      32.16128338       9.626E-04      1.17    <-- DIS
      65      32.16302968      32.13594413       8.428E-04      1.18    <-- DIS
      66      32.13745252      32.11332546       7.513E-04      1.20    <-- DIS
      67      32.11458302      32.09251625       6.876E-04      1.22    <-- DIS
      68      32.09355379      32.07277664       6.478E-04      1.24    <-- DIS
      69      32.07362287      32.05344548       6.295E-04      1.26    <-- DIS
      70      32.05411761      32.03385864       6.324E-04      1.28    <-- DIS
      71      32.03436237      32.01328118       6.585E-04      1.30    <-- DIS
      72      32.01361243      31.99084855       7.116E-04      1.31    <-- DIS
      73      31.99099524      31.96551827       7.970E-04      1.33    <-- DIS
      74      31.96546985      31.93611268       9.192E-04      1.35    <-- DIS
      75      31.93592321      31.90188308       1.067E-03      1.37    <-- DIS
      76      31.90184499      31.86413525       1.183E-03      1.39    <-- DIS
      77      31.86474738      31.82684849       1.191E-03      1.41    <-- DIS
      78      31.82820047      31.79354881       1.090E-03      1.42    <-- DIS
      79      31.79521487      31.76511640       9.475E-04      1.44    <-- DIS
      80      31.76672457      31.74093699       8.124E-04      1.46    <-- DIS
      81      31.74235461      31.72015913       6.997E-04      1.48    <-- DIS
      82      31.72138110      31.70207913       6.089E-04      1.50    <-- DIS
      83      31.70313604      31.68616798       5.355E-04      1.52    <-- DIS
      84      31.68709227      31.67203097       4.755E-04      1.54    <-- DIS
      85      31.67284897      31.65936934       4.258E-04      1.55    <-- DIS
      86      31.66010111      31.64795272       3.839E-04      1.58    <-- DIS
      87      31.64861335      31.63760016       3.481E-04      1.60    <-- DIS
      88      31.63820106      31.62816705       3.172E-04      1.62    <-- DIS
      89      31.62871694      31.61953604       2.904E-04      1.64    <-- DIS
      90      31.62004165      31.61161049       2.667E-04      1.66    <-- DIS
      91      31.61207711      31.60430986       2.458E-04      1.68    <-- DIS
      92      31.60474167      31.59756619       2.271E-04      1.71    <-- DIS
      93      31.59796656      31.59132158       2.103E-04      1.73    <-- DIS
      94      31.59169324      31.58552621       1.952E-04      1.75    <-- DIS
      95      31.58587143      31.58013688       1.816E-04      1.77    <-- DIS
      96      31.58045755      31.57511584       1.692E-04      1.79    <-- DIS
      97      31.57541357      31.57042989       1.579E-04      1.81    <-- DIS
      98      31.57070606      31.56604963       1.475E-04      1.84    <-- DIS
      99      31.56630547      31.56194895       1.380E-04      1.86    <-- DIS
     100      31.56218553      31.55810447       1.293E-04      1.88    <-- DIS
     101      31.55832276      31.55449525       1.213E-04      1.90    <-- DIS
     102      31.55469611      31.55110240       1.139E-04      1.92    <-- DIS
     103      31.55128665      31.54790887       1.071E-04      1.94    <-- DIS
     104      31.54807725      31.54489920       1.007E-04      1.96    <-- DIS
     105      31.54505240      31.54205933       9.489E-05      1.99    <-- DIS
     106      31.54219800      31.53937648       8.946E-05      2.01    <-- DIS
     107      31.53950122      31.53683895       8.442E-05      2.03    <-- DIS
     108      31.53695035      31.53443608       7.973E-05      2.05    <-- DIS
     109      31.53453468      31.53215807       7.537E-05      2.07    <-- DIS
     110      31.53224440      31.52999596       7.131E-05      2.09    <-- DIS
     111      31.53007050      31.52794148       6.753E-05      2.12    <-- DIS
     112      31.52800471      31.52598706       6.400E-05      2.14    <-- DIS
     113      31.52603943      31.52412571       6.071E-05      2.16    <-- DIS
     114      31.52416764      31.52235097       5.763E-05      2.18    <-- DIS
     115      31.52238288      31.52065690       5.476E-05      2.20    <-- DIS
     116      31.52067919      31.51903801       5.207E-05      2.22    <-- DIS
     117      31.51905103      31.51748920       4.955E-05      2.25    <-- DIS
     118      31.51749333      31.51600576       4.720E-05      2.27    <-- DIS
     119      31.51600134      31.51458335       4.499E-05      2.29    <-- DIS
     120      31.51457070      31.51321791       4.293E-05      2.31    <-- DIS
     121      31.51319735      31.51190570       4.099E-05      2.33    <-- DIS
     122      31.51187752      31.51064323       3.917E-05      2.35    <-- DIS
     123      31.51060772      31.50942727       3.746E-05      2.37    <-- DIS
     124      31.50938469      31.50825480       3.586E-05      2.40    <-- DIS
     125      31.50820543      31.50712303       3.435E-05      2.42    <-- DIS
     126      31.50706711      31.50602936       3.294E-05      2.44    <-- DIS
     127      31.50596713      31.50497135       3.161E-05      2.46    <-- DIS
     128      31.50490304      31.50394675       3.035E-05      2.48    <-- DIS
     129      31.50387257      31.50295345       2.918E-05      2.50    <-- DIS
     130      31.50287360      31.50198947       2.807E-05      2.52    <-- DIS
     131      31.50190417      31.50105299       2.702E-05      2.54    <-- DIS
     132      31.50096241      31.50014229       2.604E-05      2.56    <-- DIS
     133      31.50004661      31.49925576       2.511E-05      2.58    <-- DIS
     134      31.49915517      31.49839191       2.423E-05      2.60    <-- DIS
     135      31.49828656      31.49754934       2.341E-05      2.61    <-- DIS
     136      31.49743939      31.49672674       2.263E-05      2.63    <-- DIS
     137      31.49661234      31.49592288       2.189E-05      2.65    <-- DIS
     138      31.49580418      31.49513661       2.120E-05      2.67    <-- DIS
     139      31.49501374      31.49436685       2.054E-05      2.69    <-- DIS
     140      31.49423995      31.49361261       1.992E-05      2.71    <-- DIS
     141      31.49348180      31.49287293       1.933E-05      2.73    <-- DIS
     142      31.49273833      31.49214693       1.878E-05      2.75    <-- DIS
     143      31.49200865      31.49143377       1.826E-05      2.77    <-- DIS
     144      31.49129192      31.49073268       1.776E-05      2.79    <-- DIS
     145      31.49058737      31.49004292       1.729E-05      2.80    <-- DIS
     146      31.48989425      31.48936380       1.685E-05      2.82    <-- DIS
     147      31.48921188      31.48869469       1.642E-05      2.84    <-- DIS
     148      31.48853959      31.48803496       1.603E-05      2.86    <-- DIS
     149      31.48787679      31.48738406       1.565E-05      2.88    <-- DIS
     150      31.48722290      31.48674144       1.529E-05      2.90    <-- DIS
     151      31.48657737      31.48610661       1.495E-05      2.92    <-- DIS
     152      31.48593970      31.48547908       1.463E-05      2.94    <-- DIS
     153      31.48530941      31.48485841       1.432E-05      2.96    <-- DIS
     154      31.48468606      31.48424419       1.403E-05      2.98    <-- DIS
     155      31.48406922      31.48363601       1.376E-05      3.00    <-- DIS
     156      31.48345849      31.48303351       1.350E-05      3.01    <-- DIS
     157      31.48285350      31.48243633       1.325E-05      3.03    <-- DIS
     158      31.48225390      31.48184415       1.302E-05      3.05    <-- DIS
     159      31.48165936      31.48125665       1.279E-05      3.07    <-- DIS
     160      31.48106956      31.48067355       1.258E-05      3.09    <-- DIS
     161      31.48048420      31.48009457       1.238E-05      3.11    <-- DIS
     162      31.47990302      31.47951944       1.219E-05      3.13    <-- DIS
     163      31.47932576      31.47894793       1.200E-05      3.15    <-- DIS
     164      31.47875215      31.47837981       1.183E-05      3.17    <-- DIS
     165      31.47818198      31.47781486       1.166E-05      3.18    <-- DIS
     166      31.47761503      31.47725287       1.151E-05      3.20    <-- DIS
     167      31.47705108      31.47669365       1.136E-05      3.22    <-- DIS
     168      31.47648995      31.47613702       1.121E-05      3.24    <-- DIS
     169      31.47593146      31.47558282       1.108E-05      3.26    <-- DIS
     170      31.47537543      31.47503087       1.095E-05      3.28    <-- DIS
     171      31.47482169      31.47448104       1.082E-05      3.30    <-- DIS
     172      31.47427011      31.47393317       1.071E-05      3.31    <-- DIS
     173      31.47372052      31.47338713       1.059E-05      3.33    <-- DIS
     174      31.47317281      31.47284280       1.049E-05      3.35    <-- DIS
     175      31.47262683      31.47230005       1.038E-05      3.37    <-- DIS
     176      31.47208248      31.47175878       1.029E-05      3.39    <-- DIS
     177      31.47153963      31.47121887       1.019E-05      3.41    <-- DIS
     178      31.47099818      31.47068023       1.010E-05      3.42    <-- DIS
     179      31.47045803      31.47014277       1.002E-05      3.44    <-- DIS
     180      31.46991909      31.46960640       9.936E-06      3.48    <-- DIS
     181      31.46938126      31.46907102       9.859E-06      3.50    <-- DIS
     182      31.46884447      31.46853658       9.784E-06      3.52    <-- DIS
     183      31.46830863      31.46800298       9.713E-06      3.54    <-- DIS
     184      31.46777367      31.46747017       9.645E-06      3.56    <-- DIS
     185      31.46723952      31.46693808       9.580E-06      3.57    <-- DIS
     186      31.46670612      31.46640665       9.517E-06      3.59    <-- DIS
     187      31.46617340      31.46587581       9.457E-06      3.61    <-- DIS
     188      31.46564131      31.46534553       9.400E-06      3.63    <-- DIS
     189      31.46510978      31.46481574       9.345E-06      3.65    <-- DIS
     190      31.46457878      31.46428639       9.293E-06      3.67    <-- DIS
     191      31.46404825      31.46375746       9.242E-06      3.68    <-- DIS
     192      31.46351815      31.46322888       9.194E-06      3.70    <-- DIS
     193      31.46298843      31.46270063       9.147E-06      3.72    <-- DIS
     194      31.46245906      31.46217267       9.103E-06      3.74    <-- DIS
     195      31.46193000      31.46164496       9.060E-06      3.76    <-- DIS
     196      31.46140121      31.46111747       9.019E-06      3.78    <-- DIS
     197      31.46087267      31.46059017       8.979E-06      3.80    <-- DIS
     198      31.46034433      31.46006303       8.941E-06      3.82    <-- DIS
     199      31.45981618      31.45953603       8.905E-06      3.84    <-- DIS
     200      31.45928819      31.45900914       8.870E-06      3.85    <-- DIS
     201      31.45876033      31.45848235       8.836E-06      3.87    <-- DIS
     202      31.45823257      31.45795562       8.804E-06      3.89    <-- DIS
     203      31.45770491      31.45742893       8.773E-06      3.91    <-- DIS
     204      31.45717731      31.45690228       8.743E-06      3.93    <-- DIS
     205      31.45664975      31.45637564       8.714E-06      3.95    <-- DIS
     206      31.45612223      31.45584899       8.686E-06      3.96    <-- DIS
     207      31.45559473      31.45532233       8.660E-06      3.98    <-- DIS
     208      31.45506722      31.45479563       8.634E-06      4.00    <-- DIS
     209      31.45453970      31.45426889       8.609E-06      4.02    <-- DIS
     210      31.45401214      31.45374209       8.586E-06      4.04    <-- DIS
     211      31.45348455      31.45321522       8.563E-06      4.06    <-- DIS
     212      31.45295691      31.45268828       8.541E-06      4.08    <-- DIS
     213      31.45242920      31.45216124       8.520E-06      4.09    <-- DIS
     214      31.45190142      31.45163411       8.499E-06      4.11    <-- DIS
     215      31.45137356      31.45110687       8.480E-06      4.13    <-- DIS
     216      31.45084561      31.45057952       8.461E-06      4.15    <-- DIS
     217      31.45031757      31.45005205       8.443E-06      4.17    <-- DIS
     218      31.44978942      31.44952445       8.425E-06      4.19    <-- DIS
     219      31.44926116      31.44899672       8.408E-06      4.20    <-- DIS
     220      31.44873278      31.44846885       8.392E-06      4.22    <-- DIS
     221      31.44820428      31.44794084       8.377E-06      4.24    <-- DIS
     222      31.44767565      31.44741269       8.362E-06      4.26    <-- DIS
     223      31.44714689      31.44688438       8.348E-06      4.28    <-- DIS
     224      31.44661800      31.44635592       8.334E-06      4.30    <-- DIS
     225      31.44608896      31.44582729       8.321E-06      4.32    <-- DIS
     226      31.44555977      31.44529851       8.309E-06      4.33    <-- DIS
     227      31.44503044      31.44476956       8.297E-06      4.35    <-- DIS
     228      31.44450096      31.44424044       8.285E-06      4.37    <-- DIS
     229      31.44397132      31.44371115       8.274E-06      4.39    <-- DIS
     230      31.44344153      31.44318169       8.264E-06      4.41    <-- DIS
     231      31.44291158      31.44265205       8.254E-06      4.43    <-- DIS
     232      31.44238146      31.44212223       8.245E-06      4.45    <-- DIS
     233      31.44185118      31.44159224       8.236E-06      4.46    <-- DIS
     234      31.44132073      31.44106206       8.227E-06      4.48    <-- DIS
     235      31.44079012      31.44053170       8.219E-06      4.50    <-- DIS
     236      31.44025933      31.44000116       8.212E-06      4.52    <-- DIS
     237      31.43972838      31.43947043       8.205E-06      4.54    <-- DIS
     238      31.43919725      31.43893951       8.198E-06      4.56    <-- DIS
     239      31.43866594      31.43840840       8.192E-06      4.58    <-- DIS
     240      31.43813446      31.43787711       8.186E-06      4.59    <-- DIS
     241      31.43760280      31.43734562       8.181E-06      4.61    <-- DIS
     242      31.43707096      31.43681394       8.176E-06      4.63    <-- DIS
     243      31.43653894      31.43628206       8.171E-06      4.65    <-- DIS
     244      31.43600674      31.43574999       8.167E-06      4.67    <-- DIS
     245      31.43547436      31.43521773       8.164E-06      4.69    <-- DIS
     246      31.43494179      31.43468526       8.161E-06      4.71    <-- DIS
     247      31.43440903      31.43415260       8.158E-06      4.73    <-- DIS
     248      31.43387609      31.43361974       8.155E-06      4.74    <-- DIS
     249      31.43334296      31.43308668       8.153E-06      4.76    <-- DIS
     250      31.43280964      31.43255341       8.152E-06      4.78    <-- DIS
     251      31.43227614      31.43201995       8.151E-06      4.80    <-- DIS
     252      31.43174243      31.43148628       8.150E-06      4.82    <-- DIS
     253      31.43120854      31.43095240       8.149E-06      4.84    <-- DIS
     254      31.43067445      31.43041832       8.149E-06      4.86    <-- DIS
     255      31.43014017      31.42988403       8.150E-06      4.88    <-- DIS
     256      31.42960569      31.42934953       8.150E-06      4.89    <-- DIS
     257      31.42907101      31.42881482       8.151E-06      4.91    <-- DIS
     258      31.42853613      31.42827990       8.153E-06      4.93    <-- DIS
     259      31.42800105      31.42774477       8.155E-06      4.95    <-- DIS
     260      31.42746577      31.42720942       8.157E-06      4.97    <-- DIS
     261      31.42693028      31.42667386       8.159E-06      4.99    <-- DIS
     262      31.42639459      31.42613808       8.162E-06      5.01    <-- DIS
     263      31.42585869      31.42560208       8.166E-06      5.02    <-- DIS
     264      31.42532259      31.42506586       8.169E-06      5.04    <-- DIS
     265      31.42478627      31.42452942       8.174E-06      5.06    <-- DIS
     266      31.42424974      31.42399276       8.178E-06      5.08    <-- DIS
     267      31.42371300      31.42345588       8.183E-06      5.10    <-- DIS
     268      31.42317605      31.42291876       8.188E-06      5.12    <-- DIS
     269      31.42263888      31.42238143       8.193E-06      5.14    <-- DIS
     270      31.42210149      31.42184386       8.199E-06      5.15    <-- DIS
     271      31.42156389      31.42130607       8.205E-06      5.17    <-- DIS
     272      31.42102606      31.42076804       8.212E-06      5.19    <-- DIS
     273      31.42048801      31.42022978       8.219E-06      5.21    <-- DIS
     274      31.41994974      31.41969128       8.226E-06      5.23    <-- DIS
     275      31.41941124      31.41915255       8.234E-06      5.25    <-- DIS
     276      31.41887252      31.41861359       8.241E-06      5.27    <-- DIS
     277      31.41833357      31.41807438       8.250E-06      5.28    <-- DIS
     278      31.41779438      31.41753493       8.258E-06      5.30    <-- DIS
     279      31.41725497      31.41699524       8.267E-06      5.32    <-- DIS
     280      31.41671532      31.41645531       8.276E-06      5.34    <-- DIS
     281      31.41617544      31.41591513       8.286E-06      5.36    <-- DIS
     282      31.41563532      31.41537471       8.296E-06      5.38    <-- DIS
     283      31.41509496      31.41483403       8.306E-06      5.40    <-- DIS
     284      31.41455437      31.41429311       8.316E-06      5.41    <-- DIS
     285      31.41401353      31.41375194       8.327E-06      5.43    <-- DIS
     286      31.41347245      31.41321051       8.338E-06      5.45    <-- DIS
     287      31.41293113      31.41266884       8.350E-06      5.47    <-- DIS
     288      31.41238956      31.41212690       8.362E-06      5.49    <-- DIS
     289      31.41184775      31.41158472       8.374E-06      5.51    <-- DIS
     290      31.41130569      31.41104227       8.386E-06      5.53    <-- DIS
     291      31.41076337      31.41049957       8.399E-06      5.54    <-- DIS
     292      31.41022081      31.40995660       8.412E-06      5.56    <-- DIS
     293      31.40967800      31.40941338       8.425E-06      5.58    <-- DIS
     294      31.40913493      31.40886990       8.438E-06      5.60    <-- DIS
     295      31.40859162      31.40832615       8.452E-06      5.62    <-- DIS
     296      31.40804804      31.40778214       8.466E-06      5.64    <-- DIS
     297      31.40750421      31.40723786       8.481E-06      5.66    <-- DIS
     298      31.40696012      31.40669332       8.495E-06      5.67    <-- DIS
     299      31.40641578      31.40614851       8.510E-06      5.69    <-- DIS
     300      31.40587118      31.40560344       8.525E-06      5.71    <-- DIS
     301      31.40532631      31.40505810       8.540E-06      5.73    <-- DIS
     302      31.40478119      31.40451249       8.556E-06      5.75    <-- DIS
     303      31.40423581      31.40396661       8.572E-06      5.77    <-- DIS
     304      31.40369016      31.40342046       8.588E-06      5.79    <-- DIS
     305      31.40314425      31.40287405       8.605E-06      5.81    <-- DIS
     306      31.40259808      31.40232736       8.621E-06      5.82    <-- DIS
     307      31.40205165      31.40178040       8.638E-06      5.84    <-- DIS
     308      31.40150495      31.40123318       8.655E-06      5.86    <-- DIS
     309      31.40095799      31.40068568       8.672E-06      5.88    <-- DIS
     310      31.40041077      31.40013791       8.690E-06      5.90    <-- DIS
     311      31.39986328      31.39958987       8.708E-06      5.92    <-- DIS
     312      31.39931553      31.39904156       8.725E-06      5.94    <-- DIS
     313      31.39876752      31.39849298       8.744E-06      5.95    <-- DIS
     314      31.39821924      31.39794413       8.762E-06      5.97    <-- DIS
     315      31.39767069      31.39739501       8.781E-06      5.99    <-- DIS
     316      31.39712188      31.39684561       8.799E-06      6.01    <-- DIS
     317      31.39657281      31.39629595       8.818E-06      6.03    <-- DIS
     318      31.39602348      31.39574603       8.837E-06      6.05    <-- DIS
     319      31.39547388      31.39519583       8.857E-06      6.07    <-- DIS
     320      31.39492402      31.39464536       8.876E-06      6.08    <-- DIS
     321      31.39437390      31.39409463       8.896E-06      6.10    <-- DIS
     322      31.39382352      31.39354363       8.915E-06      6.12    <-- DIS
     323      31.39327288      31.39299237       8.935E-06      6.14    <-- DIS
     324      31.39272197      31.39244084       8.955E-06      6.16    <-- DIS
     325      31.39217081      31.39188905       8.976E-06      6.18    <-- DIS
     326      31.39161939      31.39133699       8.996E-06      6.19    <-- DIS
     327      31.39106772      31.39078468       9.017E-06      6.21    <-- DIS
     328      31.39051579      31.39023210       9.037E-06      6.23    <-- DIS
     329      31.38996360      31.38967927       9.058E-06      6.25    <-- DIS
     330      31.38941116      31.38912617       9.079E-06      6.27    <-- DIS
     331      31.38885847      31.38857283       9.100E-06      6.29    <-- DIS
     332      31.38830552      31.38801922       9.121E-06      6.31    <-- DIS
     333      31.38775233      31.38746537       9.143E-06      6.32    <-- DIS
     334      31.38719889      31.38691126       9.164E-06      6.34    <-- DIS
     335      31.38664520      31.38635690       9.185E-06      6.36    <-- DIS
     336      31.38609127      31.38580229       9.207E-06      6.38    <-- DIS
     337      31.38553709      31.38524744       9.229E-06      6.40    <-- DIS
     338      31.38498267      31.38469234       9.251E-06      6.42    <-- DIS
     339      31.38442801      31.38413701       9.272E-06      6.44    <-- DIS
     340      31.38387312      31.38358142       9.294E-06      6.45    <-- DIS
     341      31.38331798      31.38302561       9.316E-06      6.47    <-- DIS
     342      31.38276261      31.38246955       9.338E-06      6.49    <-- DIS
     343      31.38220701      31.38191326       9.361E-06      6.51    <-- DIS
     344      31.38165118      31.38135674       9.383E-06      6.53    <-- DIS
     345      31.38109512      31.38079999       9.405E-06      6.55    <-- DIS
     346      31.38053884      31.38024301       9.427E-06      6.56    <-- DIS
     347      31.37998233      31.37968580       9.450E-06      6.58    <-- DIS
     348      31.37942560      31.37912837       9.472E-06      6.60    <-- DIS
     349      31.37886865      31.37857072       9.495E-06      6.62    <-- DIS
     350      31.37831148      31.37801286       9.517E-06      6.64    <-- DIS
     351      31.37775410      31.37745478       9.540E-06      6.66    <-- DIS
     352      31.37719651      31.37689648       9.562E-06      6.68    <-- DIS
     353      31.37663871      31.37633798       9.585E-06      6.69    <-- DIS
     354      31.37608070      31.37577926       9.607E-06      6.71    <-- DIS
     355      31.37552249      31.37522035       9.630E-06      6.73    <-- DIS
     356      31.37496407      31.37466123       9.652E-06      6.75    <-- DIS
     357      31.37440546      31.37410191       9.675E-06      6.77    <-- DIS
     358      31.37384664      31.37354240       9.698E-06      6.79    <-- DIS
     359      31.37328764      31.37298269       9.720E-06      6.81    <-- DIS
     360      31.37272845      31.37242280       9.743E-06      6.83    <-- DIS
     361      31.37216906      31.37186271       9.765E-06      6.85    <-- DIS
     362      31.37160950      31.37130244       9.788E-06      6.86    <-- DIS
     363      31.37104975      31.37074200       9.810E-06      6.88    <-- DIS
     364      31.37048982      31.37018137       9.833E-06      6.90    <-- DIS
     365      31.36992972      31.36962057       9.855E-06      6.92    <-- DIS
     366      31.36936945      31.36905960       9.877E-06      6.94    <-- DIS
     367      31.36880900      31.36849846       9.900E-06      6.96    <-- DIS
     368      31.36824839      31.36793716       9.922E-06      6.97    <-- DIS
     369      31.36768762      31.36737569       9.944E-06      6.99    <-- DIS
     370      31.36712669      31.36681407       9.966E-06      7.01    <-- DIS
     371      31.36656560      31.36625229       9.989E-06      7.03    <-- DIS
     372      31.36600435      31.36569036       1.001E-05      7.05    <-- DIS
     373      31.36544296      31.36512829       1.003E-05      7.07    <-- DIS
     374      31.36488143      31.36456607       1.005E-05      7.09    <-- DIS
     375      31.36431975      31.36400371       1.008E-05      7.10    <-- DIS
     376      31.36375793      31.36344122       1.010E-05      7.12    <-- DIS
     377      31.36319598      31.36287859       1.012E-05      7.14    <-- DIS
     378      31.36263389      31.36231584       1.014E-05      7.16    <-- DIS
     379      31.36207168      31.36175296       1.016E-05      7.18    <-- DIS
     380      31.36150934      31.36118996       1.018E-05      7.20    <-- DIS
     381      31.36094688      31.36062684       1.021E-05      7.21    <-- DIS
     382      31.36038431      31.36006361       1.023E-05      7.23    <-- DIS
     383      31.35982163      31.35950027       1.025E-05      7.25    <-- DIS
     384      31.35925883      31.35893683       1.027E-05      7.27    <-- DIS
     385      31.35869593      31.35837328       1.029E-05      7.29    <-- DIS
     386      31.35813293      31.35780964       1.031E-05      7.31    <-- DIS
     387      31.35756984      31.35724591       1.033E-05      7.33    <-- DIS
     388      31.35700665      31.35668209       1.035E-05      7.34    <-- DIS
     389      31.35644338      31.35611818       1.037E-05      7.36    <-- DIS
     390      31.35588002      31.35555420       1.039E-05      7.38    <-- DIS
     391      31.35531658      31.35499015       1.041E-05      7.40    <-- DIS
     392      31.35475307      31.35442602       1.043E-05      7.42    <-- DIS
     393      31.35418949      31.35386183       1.045E-05      7.44    <-- DIS
     394      31.35362584      31.35329758       1.047E-05      7.45    <-- DIS
     395      31.35306214      31.35273327       1.049E-05      7.47    <-- DIS
     396      31.35249837      31.35216892       1.051E-05      7.49    <-- DIS
     397      31.35193456      31.35160452       1.053E-05      7.51    <-- DIS
     398      31.35137070      31.35104007       1.055E-05      7.53    <-- DIS
     399      31.35080680      31.35047560       1.056E-05      7.55    <-- DIS
     400      31.35024286      31.34991109       1.058E-05      7.57    <-- DIS
     401      31.34967889      31.34934656       1.060E-05      7.58    <-- DIS
     402      31.34911490      31.34878201       1.062E-05      7.60    <-- DIS
     403      31.34855088      31.34821744       1.064E-05      7.62    <-- DIS
     404      31.34798685      31.34765287       1.065E-05      7.64    <-- DIS
     405      31.34742282      31.34708829       1.067E-05      7.66    <-- DIS
     406      31.34685877      31.34652372       1.069E-05      7.68    <-- DIS
     407      31.34629473      31.34595915       1.071E-05      7.69    <-- DIS
     408      31.34573070      31.34539460       1.072E-05      7.71    <-- DIS
     409      31.34516668      31.34483007       1.074E-05      7.73    <-- DIS
     410      31.34460268      31.34426557       1.076E-05      7.75    <-- DIS
     411      31.34403870      31.34370110       1.077E-05      7.77    <-- DIS
     412      31.34347476      31.34313667       1.079E-05      7.79    <-- DIS
     413      31.34291085      31.34257229       1.080E-05      7.81    <-- DIS
     414      31.34234699      31.34200796       1.082E-05      7.83    <-- DIS
     415      31.34178319      31.34144369       1.083E-05      7.85    <-- DIS
     416      31.34121943      31.34087948       1.085E-05      7.86    <-- DIS
     417      31.34065575      31.34031535       1.086E-05      7.88    <-- DIS
     418      31.34009213      31.33975130       1.088E-05      7.90    <-- DIS
     419      31.33952860      31.33918733       1.089E-05      7.92    <-- DIS
     420      31.33896515      31.33862346       1.090E-05      7.94    <-- DIS
     421      31.33840179      31.33805970       1.092E-05      7.95    <-- DIS
     422      31.33783853      31.33749604       1.093E-05      7.97    <-- DIS
     423      31.33727538      31.33693250       1.094E-05      7.99    <-- DIS
     424      31.33671235      31.33636908       1.095E-05      8.01    <-- DIS
     425      31.33614944      31.33580580       1.097E-05      8.03    <-- DIS
     426      31.33558666      31.33524266       1.098E-05      8.05    <-- DIS
     427      31.33502402      31.33467967       1.099E-05      8.07    <-- DIS
     428      31.33446153      31.33411683       1.100E-05      8.08    <-- DIS
     429      31.33389920      31.33355417       1.101E-05      8.10    <-- DIS
     430      31.33333702      31.33299167       1.102E-05      8.12    <-- DIS
     431      31.33277503      31.33242936       1.103E-05      8.14    <-- DIS
     432      31.33221321      31.33186725       1.104E-05      8.16    <-- DIS
     433      31.33165159      31.33130533       1.105E-05      8.18    <-- DIS
     434      31.33109017      31.33074363       1.106E-05      8.20    <-- DIS
     435      31.33052895      31.33018215       1.107E-05      8.21    <-- DIS
     436      31.32996796      31.32962090       1.108E-05      8.23    <-- DIS
     437      31.32940719      31.32905988       1.109E-05      8.25    <-- DIS
     438      31.32884666      31.32849912       1.109E-05      8.27    <-- DIS
     439      31.32828638      31.32793862       1.110E-05      8.29    <-- DIS
     440      31.32772636      31.32737838       1.111E-05      8.31    <-- DIS
     441      31.32716661      31.32681843       1.111E-05      8.33    <-- DIS
     442      31.32660713      31.32625877       1.112E-05      8.34    <-- DIS
     443      31.32604795      31.32569941       1.113E-05      8.36    <-- DIS
     444      31.32548906      31.32514036       1.113E-05      8.38    <-- DIS
     445      31.32493049      31.32458163       1.114E-05      8.40    <-- DIS
     446      31.32437224      31.32402324       1.114E-05      8.42    <-- DIS
     447      31.32381431      31.32346519       1.115E-05      8.43    <-- DIS
     448      31.32325674      31.32290750       1.115E-05      8.45    <-- DIS
     449      31.32269952      31.32235018       1.115E-05      8.47    <-- DIS
     450      31.32214266      31.32179323       1.116E-05      8.49    <-- DIS
     451      31.32158619      31.32123668       1.116E-05      8.51    <-- DIS
     452      31.32103010      31.32068053       1.116E-05      8.53    <-- DIS
     453      31.32047442      31.32012480       1.116E-05      8.54    <-- DIS
     454      31.31991916      31.31956950       1.116E-05      8.56    <-- DIS
     455      31.31936432      31.31901464       1.117E-05      8.62    <-- DIS
     456      31.31880992      31.31846023       1.117E-05      8.64    <-- DIS
     457      31.31825597      31.31790628       1.117E-05      8.66    <-- DIS
     458      31.31770249      31.31735282       1.117E-05      8.68    <-- DIS
     459      31.31714949      31.31679985       1.116E-05      8.70    <-- DIS
     460      31.31659697      31.31624738       1.116E-05      8.72    <-- DIS
     461      31.31604497      31.31569543       1.116E-05      8.74    <-- DIS
     462      31.31549348      31.31514401       1.116E-05      8.76    <-- DIS
     463      31.31494252      31.31459314       1.116E-05      8.77    <-- DIS
     464      31.31439211      31.31404283       1.115E-05      8.79    <-- DIS
     465      31.31384225      31.31349309       1.115E-05      8.81    <-- DIS
     466      31.31329297      31.31294393       1.115E-05      8.83    <-- DIS
     467      31.31274428      31.31239538       1.114E-05      8.85    <-- DIS
     468      31.31219619      31.31184745       1.114E-05      8.87    <-- DIS
     469      31.31164871      31.31130014       1.113E-05      8.88    <-- DIS
     470      31.31110186      31.31075347       1.113E-05      8.90    <-- DIS
     471      31.31055566      31.31020747       1.112E-05      8.92    <-- DIS
     472      31.31001011      31.30966214       1.111E-05      8.94    <-- DIS
     473      31.30946524      31.30911749       1.111E-05      8.96    <-- DIS
     474      31.30892106      31.30857355       1.110E-05      8.98    <-- DIS
     475      31.30837758      31.30803033       1.109E-05      9.00    <-- DIS
     476      31.30783481      31.30748784       1.108E-05      9.01    <-- DIS
     477      31.30729279      31.30694610       1.107E-05      9.03    <-- DIS
     478      31.30675150      31.30640512       1.106E-05      9.05    <-- DIS
     479      31.30621099      31.30586491       1.105E-05      9.07    <-- DIS
     480      31.30567125      31.30532551       1.104E-05      9.09    <-- DIS
     481      31.30513231      31.30478691       1.103E-05      9.11    <-- DIS
     482      31.30459418      31.30424913       1.102E-05      9.12    <-- DIS
     483      31.30405687      31.30371220       1.101E-05      9.14    <-- DIS
     484      31.30352040      31.30317612       1.100E-05      9.16    <-- DIS
     485      31.30298479      31.30264091       1.099E-05      9.18    <-- DIS
     486      31.30245006      31.30210659       1.097E-05      9.20    <-- DIS
     487      31.30191621      31.30157318       1.096E-05      9.22    <-- DIS
     488      31.30138326      31.30104068       1.094E-05      9.24    <-- DIS
     489      31.30085124      31.30050911       1.093E-05      9.26    <-- DIS
     490      31.30032015      31.29997850       1.092E-05      9.27    <-- DIS
     491      31.29979001      31.29944885       1.090E-05      9.29    <-- DIS
     492      31.29926084      31.29892018       1.088E-05      9.31    <-- DIS
     493      31.29873266      31.29839251       1.087E-05      9.33    <-- DIS
     494      31.29820547      31.29786586       1.085E-05      9.35    <-- DIS
     495      31.29767930      31.29734023       1.083E-05      9.37    <-- DIS
     496      31.29715416      31.29681565       1.082E-05      9.39    <-- DIS
     497      31.29663007      31.29629213       1.080E-05      9.41    <-- DIS
     498      31.29610704      31.29576969       1.078E-05      9.43    <-- DIS
     499      31.29558509      31.29524834       1.076E-05      9.45    <-- DIS
     500      31.29506423      31.29472810       1.074E-05      9.47    <-- DIS
     501      31.29454449      31.29420898       1.072E-05      9.48    <-- DIS
     502      31.29402587      31.29369101       1.070E-05      9.50    <-- DIS
     503      31.29350839      31.29317418       1.068E-05      9.52    <-- DIS
     504      31.29299207      31.29265853       1.066E-05      9.54    <-- DIS
     505      31.29247693      31.29214407       1.064E-05      9.56    <-- DIS
     506      31.29196297      31.29163081       1.062E-05      9.58    <-- DIS
     507      31.29145022      31.29111877       1.059E-05      9.60    <-- DIS
     508      31.29093869      31.29060796       1.057E-05      9.62    <-- DIS
     509      31.29042839      31.29009839       1.055E-05      9.64    <-- DIS
     510      31.28991935      31.28959009       1.052E-05      9.66    <-- DIS
     511      31.28941157      31.28908307       1.050E-05      9.67    <-- DIS
     512      31.28890507      31.28857735       1.047E-05      9.69    <-- DIS
     513      31.28839987      31.28807293       1.045E-05      9.71    <-- DIS
     514      31.28789598      31.28756983       1.042E-05      9.73    <-- DIS
     515      31.28739341      31.28706807       1.040E-05      9.75    <-- DIS
     516      31.28689219      31.28656767       1.037E-05      9.77    <-- DIS
     517      31.28639232      31.28606863       1.035E-05      9.79    <-- DIS
     518      31.28589382      31.28557097       1.032E-05      9.81    <-- DIS
     519      31.28539670      31.28507471       1.029E-05      9.83    <-- DIS
     520      31.28490098      31.28457986       1.026E-05      9.85    <-- DIS
     521      31.28440668      31.28408643       1.024E-05      9.87    <-- DIS
     522      31.28391380      31.28359443       1.021E-05      9.89    <-- DIS
     523      31.28342236      31.28310389       1.018E-05      9.90    <-- DIS
     524      31.28293237      31.28261481       1.015E-05      9.92    <-- DIS
     525      31.28244385      31.28212721       1.012E-05      9.94    <-- DIS
     526      31.28195681      31.28164110       1.009E-05      9.96    <-- DIS
     527      31.28147127      31.28115650       1.006E-05      9.98    <-- DIS
     528      31.28098723      31.28067341       1.003E-05     10.00    <-- DIS
     529      31.28050471      31.28019185       1.000E-05     10.02    <-- DIS
     530      31.28002372      31.27971183       9.971E-06     10.04    <-- DIS
     531      31.27954428      31.27923336       9.940E-06     10.06    <-- DIS
     532      31.27906639      31.27875647       9.909E-06     10.08    <-- DIS
     533      31.27859007      31.27828114       9.877E-06     10.09    <-- DIS
     534      31.27811534      31.27780741       9.845E-06     10.11    <-- DIS
     535      31.27764219      31.27733528       9.813E-06     10.13    <-- DIS
     536      31.27717065      31.27686477       9.780E-06     10.15    <-- DIS
     537      31.27670073      31.27639587       9.747E-06     10.17    <-- DIS
     538      31.27623243      31.27592862       9.714E-06     10.19    <-- DIS
     539      31.27576577      31.27546300       9.681E-06     10.21    <-- DIS
     540      31.27530076      31.27499905       9.647E-06     10.23    <-- DIS
     541      31.27483741      31.27453676       9.613E-06     10.25    <-- DIS
     542      31.27437573      31.27407615       9.579E-06     10.27    <-- DIS
     543      31.27391573      31.27361722       9.545E-06     10.28    <-- DIS
     544      31.27345742      31.27316000       9.510E-06     10.30    <-- DIS
     545      31.27300081      31.27270448       9.476E-06     10.32    <-- DIS
     546      31.27254590      31.27225067       9.441E-06     10.34    <-- DIS
     547      31.27209272      31.27179859       9.406E-06     10.36    <-- DIS
     548      31.27164126      31.27134824       9.370E-06     10.38    <-- DIS
     549      31.27119154      31.27089964       9.335E-06     10.40    <-- DIS
     550      31.27074357      31.27045279       9.299E-06     10.42    <-- DIS
     551      31.27029735      31.27000769       9.263E-06     10.44    <-- DIS
     552      31.26985289      31.26956437       9.227E-06     10.46    <-- DIS
     553      31.26941020      31.26912282       9.191E-06     10.47    <-- DIS
     554      31.26896929      31.26868305       9.154E-06     10.49    <-- DIS
     555      31.26853016      31.26824508       9.117E-06     10.51    <-- DIS
     556      31.26809283      31.26780890       9.081E-06     10.53    <-- DIS
     557      31.26765730      31.26737453       9.044E-06     10.55    <-- DIS
     558      31.26722358      31.26694197       9.007E-06     10.57    <-- DIS
     559      31.26679167      31.26651123       8.969E-06     10.59    <-- DIS
     560      31.26636158      31.26608231       8.932E-06     10.61    <-- DIS
     561      31.26593332      31.26565523       8.895E-06     10.62    <-- DIS
     562      31.26550689      31.26522998       8.857E-06     10.64    <-- DIS
     563      31.26508230      31.26480657       8.819E-06     10.66    <-- DIS
     564      31.26465956      31.26438502       8.781E-06     10.68    <-- DIS
     565      31.26423867      31.26396531       8.743E-06     10.70    <-- DIS
     566      31.26381963      31.26354747       8.705E-06     10.72    <-- DIS
     567      31.26340245      31.26313149       8.667E-06     10.74    <-- DIS
     568      31.26298714      31.26271738       8.629E-06     10.76    <-- DIS
     569      31.26257371      31.26230514       8.591E-06     10.78    <-- DIS
     570      31.26216214      31.26189479       8.552E-06     10.80    <-- DIS
     571      31.26175246      31.26148631       8.514E-06     10.82    <-- DIS
     572      31.26134466      31.26107972       8.475E-06     10.84    <-- DIS
     573      31.26093874      31.26067502       8.436E-06     10.86    <-- DIS
     574      31.26053472      31.26027221       8.398E-06     10.88    <-- DIS
     575      31.26013260      31.25987130       8.359E-06     10.89    <-- DIS
     576      31.25973237      31.25947229       8.320E-06     10.91    <-- DIS
     577      31.25933404      31.25907518       8.281E-06     10.93    <-- DIS
     578      31.25893762      31.25867997       8.242E-06     10.95    <-- DIS
     579      31.25854310      31.25828668       8.203E-06     10.97    <-- DIS
     580      31.25815050      31.25789530       8.164E-06     10.99    <-- DIS
     581      31.25775980      31.25750583       8.125E-06     11.01    <-- DIS
     582      31.25737103      31.25711827       8.086E-06     11.03    <-- DIS
     583      31.25698416      31.25673264       8.047E-06     11.05    <-- DIS
     584      31.25659922      31.25634892       8.008E-06     11.06    <-- DIS
     585      31.25621620      31.25596712       7.969E-06     11.08    <-- DIS
     586      31.25583510      31.25558725       7.930E-06     11.10    <-- DIS
     587      31.25545592      31.25520930       7.891E-06     11.12    <-- DIS
     588      31.25507866      31.25483327       7.851E-06     11.14    <-- DIS
     589      31.25470333      31.25445917       7.812E-06     11.16    <-- DIS
     590      31.25432993      31.25408699       7.773E-06     11.18    <-- DIS
     591      31.25395846      31.25371675       7.734E-06     11.20    <-- DIS
     592      31.25358891      31.25334843       7.695E-06     11.22    <-- DIS
     593      31.25322129      31.25298204       7.655E-06     11.23    <-- DIS
     594      31.25285560      31.25261757       7.616E-06     11.25    <-- DIS
     595      31.25249184      31.25225504       7.577E-06     11.27    <-- DIS
     596      31.25213001      31.25189443       7.538E-06     11.29    <-- DIS
     597      31.25177011      31.25153575       7.499E-06     11.31    <-- DIS
     598      31.25141213      31.25117900       7.460E-06     11.33    <-- DIS
     599      31.25105609      31.25082418       7.421E-06     11.35    <-- DIS
     600      31.25070197      31.25047128       7.382E-06     11.37    <-- DIS
     601      31.25034977      31.25012031       7.343E-06     11.39    <-- DIS
     602      31.24999951      31.24977127       7.304E-06     11.41    <-- DIS
     603      31.24965117      31.24942415       7.265E-06     11.42    <-- DIS
     604      31.24930475      31.24907895       7.226E-06     11.44    <-- DIS
     605      31.24896026      31.24873568       7.187E-06     11.46    <-- DIS
     606      31.24861769      31.24839432       7.148E-06     11.48    <-- DIS
     607      31.24827704      31.24805489       7.109E-06     11.50    <-- DIS
     608      31.24793831      31.24771737       7.071E-06     11.52    <-- DIS
     609      31.24760150      31.24738177       7.032E-06     11.54    <-- DIS
     610      31.24726660      31.24704808       6.993E-06     11.56    <-- DIS
     611      31.24693362      31.24671631       6.955E-06     11.58    <-- DIS
     612      31.24660254      31.24638644       6.916E-06     11.60    <-- DIS
     613      31.24627338      31.24605849       6.878E-06     11.61    <-- DIS
     614      31.24594613      31.24573244       6.839E-06     11.63    <-- DIS
     615      31.24562078      31.24540830       6.801E-06     11.65    <-- DIS
     616      31.24529734      31.24508605       6.762E-06     11.67    <-- DIS
     617      31.24497580      31.24476571       6.724E-06     11.69    <-- DIS
     618      31.24465616      31.24444726       6.686E-06     11.71    <-- DIS
     619      31.24433841      31.24413071       6.648E-06     11.73    <-- DIS
     620      31.24402256      31.24381605       6.610E-06     11.75    <-- DIS
     621      31.24370859      31.24350327       6.572E-06     11.77    <-- DIS
     622      31.24339652      31.24319239       6.534E-06     11.79    <-- DIS
     623      31.24308633      31.24288338       6.496E-06     11.81    <-- DIS
     624      31.24277802      31.24257626       6.458E-06     11.83    <-- DIS
     625      31.24247159      31.24227101       6.420E-06     11.85    <-- DIS
     626      31.24216704      31.24196764       6.382E-06     11.86    <-- DIS
     627      31.24186436      31.24166614       6.345E-06     11.88    <-- DIS
     628      31.24156355      31.24136650       6.307E-06     11.90    <-- DIS
     629      31.24126460      31.24106873       6.270E-06     11.92    <-- DIS
     630      31.24096752      31.24077281       6.232E-06     11.94    <-- DIS
     631      31.24067229      31.24047876       6.195E-06     11.96    <-- DIS
     632      31.24037892      31.24018655       6.158E-06     11.98    <-- DIS
     633      31.24008741      31.23989620       6.121E-06     12.00    <-- DIS
     634      31.23979774      31.23960769       6.084E-06     12.02    <-- DIS
     635      31.23950991      31.23932102       6.047E-06     12.04    <-- DIS
     636      31.23922393      31.23903619       6.010E-06     12.06    <-- DIS
     637      31.23893978      31.23875319       5.973E-06     12.07    <-- DIS
     638      31.23865746      31.23847203       5.936E-06     12.09    <-- DIS
     639      31.23837697      31.23819269       5.899E-06     12.11    <-- DIS
     640      31.23809831      31.23791517       5.863E-06     12.13    <-- DIS
     641      31.23782147      31.23763946       5.826E-06     12.15    <-- DIS
     642      31.23754644      31.23736558       5.790E-06     12.17    <-- DIS
     643      31.23727322      31.23709350       5.754E-06     12.19    <-- DIS
     644      31.23700181      31.23682322       5.717E-06     12.21    <-- DIS
     645      31.23673221      31.23655474       5.681E-06     12.23    <-- DIS
     646      31.23646440      31.23628806       5.645E-06     12.25    <-- DIS
     647      31.23619838      31.23602317       5.609E-06     12.26    <-- DIS
     648      31.23593416      31.23576007       5.573E-06     12.28    <-- DIS
     649      31.23567172      31.23549875       5.537E-06     12.30    <-- DIS
     650      31.23541105      31.23523921       5.502E-06     12.32    <-- DIS
     651      31.23515217      31.23498143       5.466E-06     12.34    <-- DIS
     652      31.23489505      31.23472543       5.431E-06     12.36    <-- DIS
     653      31.23463970      31.23447119       5.395E-06     12.38    <-- DIS
     654      31.23438611      31.23421870       5.360E-06     12.40    <-- DIS
     655      31.23413428      31.23396797       5.325E-06     12.42    <-- DIS
     656      31.23388420      31.23371899       5.289E-06     12.44    <-- DIS
     657      31.23363586      31.23347174       5.254E-06     12.46    <-- DIS
     658      31.23338926      31.23322624       5.219E-06     12.47    <-- DIS
     659      31.23314440      31.23298247       5.185E-06     12.49    <-- DIS
     660      31.23290127      31.23274042       5.150E-06     12.51    <-- DIS
     661      31.23265986      31.23250010       5.115E-06     12.53    <-- DIS
     662      31.23242018      31.23226150       5.081E-06     12.55    <-- DIS
     663      31.23218221      31.23202460       5.046E-06     12.57    <-- DIS
     664      31.23194594      31.23178941       5.012E-06     12.59    <-- DIS
     665      31.23171138      31.23155593       4.978E-06     12.61    <-- DIS
     666      31.23147852      31.23132413       4.943E-06     12.62    <-- DIS
     667      31.23124735      31.23109403       4.909E-06     12.64    <-- DIS
     668      31.23101787      31.23086561       4.875E-06     12.66    <-- DIS
     669      31.23079007      31.23063887       4.842E-06     12.68    <-- DIS
     670      31.23056395      31.23041380       4.808E-06     12.70    <-- DIS
     671      31.23033950      31.23019040       4.774E-06     12.72    <-- DIS
     672      31.23011671      31.22996866       4.741E-06     12.74    <-- DIS
     673      31.22989558      31.22974857       4.707E-06     12.76    <-- DIS
     674      31.22967610      31.22953013       4.674E-06     12.78    <-- DIS
     675      31.22945827      31.22931334       4.641E-06     12.80    <-- DIS
     676      31.22924208      31.22909819       4.608E-06     12.82    <-- DIS
     677      31.22902752      31.22888466       4.575E-06     12.84    <-- DIS
     678      31.22881460      31.22867276       4.542E-06     12.86    <-- DIS
     679      31.22860330      31.22846248       4.509E-06     12.88    <-- DIS
     680      31.22839361      31.22825382       4.476E-06     12.89    <-- DIS
     681      31.22818554      31.22804676       4.444E-06     12.91    <-- DIS
     682      31.22797907      31.22784130       4.411E-06     12.93    <-- DIS
     683      31.22777419      31.22763744       4.379E-06     12.95    <-- DIS
     684      31.22757091      31.22743517       4.347E-06     12.97    <-- DIS
     685      31.22736922      31.22723448       4.315E-06     12.99    <-- DIS
     686      31.22716911      31.22703536       4.283E-06     13.01    <-- DIS
     687      31.22697056      31.22683782       4.251E-06     13.03    <-- DIS
     688      31.22677359      31.22664183       4.219E-06     13.05    <-- DIS
     689      31.22657818      31.22644741       4.188E-06     13.07    <-- DIS
     690      31.22638432      31.22625453       4.156E-06     13.09    <-- DIS
     691      31.22619200      31.22606320       4.125E-06     13.10    <-- DIS
     692      31.22600123      31.22587340       4.094E-06     13.12    <-- DIS
     693      31.22581199      31.22568514       4.063E-06     13.14    <-- DIS
     694      31.22562428      31.22549839       4.032E-06     13.16    <-- DIS
     695      31.22543809      31.22531317       4.001E-06     13.18    <-- DIS
     696      31.22525342      31.22512945       3.970E-06     13.20    <-- DIS
     697      31.22507025      31.22494724       3.939E-06     13.22    <-- DIS
     698      31.22488858      31.22476653       3.909E-06     13.24    <-- DIS
     699      31.22470841      31.22458730       3.879E-06     13.26    <-- DIS
     700      31.22452972      31.22440956       3.848E-06     13.28    <-- DIS
     701      31.22435251      31.22423329       3.818E-06     13.29    <-- DIS
     702      31.22417678      31.22405850       3.788E-06     13.31    <-- DIS
     703      31.22400251      31.22388516       3.758E-06     13.33    <-- DIS
     704      31.22382970      31.22371328       3.729E-06     13.35    <-- DIS
     705      31.22365835      31.22354285       3.699E-06     13.37    <-- DIS
     706      31.22348844      31.22337386       3.670E-06     13.39    <-- DIS
     707      31.22331996      31.22320630       3.640E-06     13.41    <-- DIS
     708      31.22315292      31.22304017       3.611E-06     13.43    <-- DIS
     709      31.22298730      31.22287546       3.582E-06     13.45    <-- DIS
     710      31.22282310      31.22271216       3.553E-06     13.47    <-- DIS
     711      31.22266030      31.22255026       3.524E-06     13.48    <-- DIS
     712      31.22249891      31.22238976       3.496E-06     13.50    <-- DIS
     713      31.22233892      31.22223066       3.467E-06     13.52    <-- DIS
     714      31.22218031      31.22207294       3.439E-06     13.54    <-- DIS
     715      31.22202308      31.22191659       3.411E-06     13.56    <-- DIS
     716      31.22186722      31.22176161       3.383E-06     13.58    <-- DIS
     717      31.22171273      31.22160799       3.355E-06     13.60    <-- DIS
     718      31.22155960      31.22145573       3.327E-06     13.62    <-- DIS
     719      31.22140782      31.22130481       3.299E-06     13.64    <-- DIS
     720      31.22125738      31.22115523       3.272E-06     13.66    <-- DIS
     721      31.22110827      31.22100698       3.244E-06     13.68    <-- DIS
     722      31.22096050      31.22086006       3.217E-06     13.69    <-- DIS
     723      31.22081405      31.22071445       3.190E-06     13.73    <-- DIS
     724      31.22066891      31.22057016       3.163E-06     13.75    <-- DIS
     725      31.22052507      31.22042716       3.136E-06     13.77    <-- DIS
     726      31.22038254      31.22028545       3.110E-06     13.79    <-- DIS
     727      31.22024129      31.22014504       3.083E-06     13.80    <-- DIS
     728      31.22010133      31.22000590       3.057E-06     13.82    <-- DIS
     729      31.21996264      31.21986803       3.030E-06     13.84    <-- DIS
     730      31.21982522      31.21973143       3.004E-06     13.86    <-- DIS
     731      31.21968906      31.21959608       2.978E-06     13.88    <-- DIS
     732      31.21955415      31.21946197       2.953E-06     13.90    <-- DIS
     733      31.21942049      31.21932911       2.927E-06     13.92    <-- DIS
     734      31.21928807      31.21919748       2.902E-06     13.93    <-- DIS
     735      31.21915687      31.21906708       2.876E-06     13.95    <-- DIS
     736      31.21902690      31.21893789       2.851E-06     13.97    <-- DIS
     737      31.21889814      31.21880992       2.826E-06     13.99    <-- DIS
     738      31.21877059      31.21868314       2.801E-06     14.01    <-- DIS
     739      31.21864423      31.21855756       2.776E-06     14.03    <-- DIS
     740      31.21851907      31.21843316       2.752E-06     14.04    <-- DIS
     741      31.21839509      31.21830995       2.727E-06     14.06    <-- DIS
     742      31.21827228      31.21818790       2.703E-06     14.08    <-- DIS
     743      31.21815065      31.21806702       2.679E-06     14.10    <-- DIS
     744      31.21803017      31.21794729       2.655E-06     14.12    <-- DIS
     745      31.21791085      31.21782871       2.631E-06     14.14    <-- DIS
     746      31.21779266      31.21771127       2.607E-06     14.16    <-- DIS
     747      31.21767562      31.21759496       2.584E-06     14.17    <-- DIS
     748      31.21755971      31.21747977       2.561E-06     14.19    <-- DIS
     749      31.21744491      31.21736570       2.537E-06     14.21    <-- DIS
     750      31.21733123      31.21725274       2.514E-06     14.23    <-- DIS
     751      31.21721866      31.21714088       2.491E-06     14.25    <-- DIS
     752      31.21710718      31.21703012       2.469E-06     14.27    <-- DIS
     753      31.21699679      31.21692044       2.446E-06     14.28    <-- DIS
     754      31.21688749      31.21681183       2.424E-06     14.30    <-- DIS
     755      31.21677926      31.21670430       2.401E-06     14.32    <-- DIS
     756      31.21667210      31.21659783       2.379E-06     14.34    <-- DIS
     757      31.21656599      31.21649241       2.357E-06     14.36    <-- DIS
     758      31.21646094      31.21638804       2.335E-06     14.38    <-- DIS
     759      31.21635693      31.21628471       2.314E-06     14.40    <-- DIS
     760      31.21625396      31.21618241       2.292E-06     14.41    <-- DIS
     761      31.21615201      31.21608113       2.271E-06     14.43    <-- DIS
     762      31.21605109      31.21598087       2.250E-06     14.45    <-- DIS
     763      31.21595118      31.21588161       2.229E-06     14.47    <-- DIS
     764      31.21585227      31.21578336       2.208E-06     14.49    <-- DIS
     765      31.21575437      31.21568610       2.187E-06     14.51    <-- DIS
     766      31.21565745      31.21558983       2.166E-06     14.52    <-- DIS
     767      31.21556151      31.21549453       2.146E-06     14.54    <-- DIS
     768      31.21546655      31.21540020       2.125E-06     14.56    <-- DIS
[...]
  WF centre and spread   23  (  1.740488, -1.460832, -2.250697 )     2.18428773
  WF centre and spread   24  ( -0.030973, -1.860366,  0.826924 )     2.14707204
  WF centre and spread   25  (  2.189698,  0.272018,  0.265452 )     2.24352043
  WF centre and spread   26  ( -0.951933,  0.436133, -1.462056 )     2.17929368
  Sum of centres and spreads ( -5.379654,  5.384216,  5.378799 )    40.14998634
 
   7000    -0.655E-10     0.0000068039       40.1499863366     318.18  <-- CONV
        O_D=      0.1086230 O_OD=      8.8343592 O_TOT=     40.1499863 <-- SPRD
 Delta: O_D= -0.3558576E-10 O_OD= -0.2986766E-10 O_TOT= -0.6545520E-10 <-- DLTA
 ------------------------------------------------------------------------------

 done


 done


 done


 done


 done

 Cycle:   7500
  WF centre and spread    1  (  0.730089, -0.558828,  0.051920 )     1.26059893
  WF centre and spread    2  (  1.095358, -1.076053, -1.066484 )     1.31317106
  WF centre and spread    3  (  0.729918,  0.052693, -0.559032 )     1.25820350
  WF centre and spread    4  (  1.360186, -0.531097, -0.529518 )     1.23702881
  WF centre and spread    5  (  0.072392, -0.886004, -0.346234 )     1.26725273
  WF centre and spread    6  ( -0.729124,  0.560686, -0.052368 )     1.26035230
  WF centre and spread    7  ( -1.097502,  1.072432,  1.067617 )     1.31380101
  WF centre and spread    8  ( -0.728155, -0.051643,  0.557561 )     1.25923074
  WF centre and spread    9  ( -1.359261,  0.528741,  0.528474 )     1.23748138
  WF centre and spread   10  ( -0.073461,  0.889836,  0.346398 )     1.26742207
  WF centre and spread   11  ( -0.078687,  0.344451,  0.898021 )     1.26942898
  WF centre and spread   12  ( -0.768165,  0.398920,  1.312491 )     1.24245329
  WF centre and spread   13  ( -0.381797,  1.028761,  1.030385 )     1.22848819
  WF centre and spread   14  ( -0.759585,  1.314429,  0.397452 )     1.24432744
  WF centre and spread   15  (  0.080725, -0.343193, -0.899983 )     1.26949533
  WF centre and spread   16  ( -1.918807, -0.401767,  1.375778 )     1.24252274
  WF centre and spread   17  (  0.379655,  1.660798,  1.660775 )     1.22818850
  WF centre and spread   18  ( -1.932714,  1.376047, -0.394749 )     1.24473413
  WF centre and spread   19  ( -1.736868,  1.464735,  2.255924 )     2.17947957
  WF centre and spread   20  (  0.031937,  1.858794, -0.827365 )     2.14787366
  WF centre and spread   21  ( -2.192177, -0.268144, -0.268016 )     2.24346316
  WF centre and spread   22  (  0.949109, -0.437333,  1.460129 )     2.18081495
  WF centre and spread   23  (  1.740488, -1.460832, -2.250697 )     2.18428719
  WF centre and spread   24  ( -0.030973, -1.860366,  0.826923 )     2.14707186
  WF centre and spread   25  (  2.189699,  0.272018,  0.265452 )     2.24352057
  WF centre and spread   26  ( -0.951933,  0.436133, -1.462056 )     2.17929422
  Sum of centres and spreads ( -5.379654,  5.384216,  5.378799 )    40.14998632
 
   7500    -0.229E-11     0.0000065564       40.1499863211     331.78  <-- CONV
        O_D=      0.1086230 O_OD=      8.8343592 O_TOT=     40.1499863 <-- SPRD
 Delta: O_D= -0.1273370E-11 O_OD= -0.1016076E-11 O_TOT= -0.2287948E-11 <-- DLTA
 ------------------------------------------------------------------------------

 done


 done


 done


 done


 done

 Cycle:   8000
  WF centre and spread    1  (  0.730087, -0.558829,  0.051920 )     1.26060156
  WF centre and spread    2  (  1.095361, -1.076061, -1.066472 )     1.31317167
  WF centre and spread    3  (  0.729915,  0.052694, -0.559032 )     1.25820081
  WF centre and spread    4  (  1.360184, -0.531095, -0.529514 )     1.23702907
  WF centre and spread    5  (  0.072383, -0.885990, -0.346238 )     1.26724983
  WF centre and spread    6  ( -0.729121,  0.560687, -0.052367 )     1.26035474
  WF centre and spread    7  ( -1.097507,  1.072439,  1.067605 )     1.31380196
  WF centre and spread    8  ( -0.728152, -0.051644,  0.557561 )     1.25922832
  WF centre and spread    9  ( -1.359258,  0.528738,  0.528468 )     1.23748166
  WF centre and spread   10  ( -0.073452,  0.889825,  0.346403 )     1.26741923
  WF centre and spread   11  ( -0.078694,  0.344451,  0.898038 )     1.26943102
  WF centre and spread   12  ( -0.768179,  0.398926,  1.312490 )     1.24245226
  WF centre and spread   13  ( -0.381802,  1.028763,  1.030388 )     1.22848738
  WF centre and spread   14  ( -0.759572,  1.314429,  0.397446 )     1.24432880
  WF centre and spread   15  (  0.080733, -0.343191, -0.900000 )     1.26949774
  WF centre and spread   16  ( -1.918792, -0.401774,  1.375779 )     1.24252155
  WF centre and spread   17  (  0.379658,  1.660797,  1.660772 )     1.22818795
  WF centre and spread   18  ( -1.932729,  1.376047, -0.394742 )     1.24473552
  WF centre and spread   19  ( -1.736868,  1.464735,  2.255924 )     2.17947906
  WF centre and spread   20  (  0.031937,  1.858794, -0.827365 )     2.14787348
  WF centre and spread   21  ( -2.192177, -0.268144, -0.268016 )     2.24346339
  WF centre and spread   22  (  0.949109, -0.437333,  1.460129 )     2.18081550
  WF centre and spread   23  (  1.740488, -1.460832, -2.250697 )     2.18428659
  WF centre and spread   24  ( -0.030973, -1.860366,  0.826923 )     2.14707167
  WF centre and spread   25  (  2.189699,  0.272018,  0.265452 )     2.24352072
  WF centre and spread   26  ( -0.951933,  0.436133, -1.462055 )     2.17929482
  Sum of centres and spreads ( -5.379654,  5.384216,  5.378799 )    40.14998630
 
   8000    -0.568E-12     0.0000072632       40.1499863045     344.33  <-- CONV
        O_D=      0.1086230 O_OD=      8.8343592 O_TOT=     40.1499863 <-- SPRD
 Delta: O_D= -0.3704953E-12 O_OD= -0.2025047E-12 O_TOT= -0.5684342E-12 <-- DLTA
 ------------------------------------------------------------------------------

 done


 done


 done


 done


 done

 Cycle:   8500
  WF centre and spread    1  (  0.730085, -0.558830,  0.051919 )     1.26060426
  WF centre and spread    2  (  1.095365, -1.076070, -1.066460 )     1.31317228
  WF centre and spread    3  (  0.729912,  0.052695, -0.559031 )     1.25819805
  WF centre and spread    4  (  1.360183, -0.531094, -0.529509 )     1.23702932
  WF centre and spread    5  (  0.072373, -0.885976, -0.346243 )     1.26724686
  WF centre and spread    6  ( -0.729118,  0.560688, -0.052366 )     1.26035724
  WF centre and spread    7  ( -1.097511,  1.072446,  1.067592 )     1.31380290
  WF centre and spread    8  ( -0.728148, -0.051645,  0.557560 )     1.25922585
  WF centre and spread    9  ( -1.359256,  0.528735,  0.528463 )     1.23748195
  WF centre and spread   10  ( -0.073443,  0.889813,  0.346408 )     1.26741634
  WF centre and spread   11  ( -0.078701,  0.344450,  0.898054 )     1.26943311
  WF centre and spread   12  ( -0.768194,  0.398933,  1.312489 )     1.24245122
  WF centre and spread   13  ( -0.381807,  1.028765,  1.030392 )     1.22848655
  WF centre and spread   14  ( -0.759559,  1.314428,  0.397439 )     1.24433019
  WF centre and spread   15  (  0.080741, -0.343190, -0.900017 )     1.26950020
  WF centre and spread   16  ( -1.918776, -0.401781,  1.375780 )     1.24252033
  WF centre and spread   17  (  0.379662,  1.660796,  1.660769 )     1.22818741
  WF centre and spread   18  ( -1.932744,  1.376047, -0.394735 )     1.24473694
  WF centre and spread   19  ( -1.736868,  1.464735,  2.255924 )     2.17947854
  WF centre and spread   20  (  0.031937,  1.858794, -0.827365 )     2.14787330
  WF centre and spread   21  ( -2.192177, -0.268144, -0.268016 )     2.24346363
  WF centre and spread   22  (  0.949109, -0.437333,  1.460129 )     2.18081607
  WF centre and spread   23  (  1.740488, -1.460833, -2.250697 )     2.18428597
  WF centre and spread   24  ( -0.030973, -1.860366,  0.826923 )     2.14707148
  WF centre and spread   25  (  2.189699,  0.272018,  0.265452 )     2.24352087
  WF centre and spread   26  ( -0.951932,  0.436133, -1.462055 )     2.17929543
  Sum of centres and spreads ( -5.379654,  5.384216,  5.378799 )    40.14998629
 
   8500    -0.483E-12     0.0000067775       40.1499862882     358.13  <-- CONV
        O_D=      0.1086230 O_OD=      8.8343592 O_TOT=     40.1499863 <-- SPRD
 Delta: O_D= -0.3210904E-12 O_OD= -0.1669775E-12 O_TOT= -0.4831691E-12 <-- DLTA
 ------------------------------------------------------------------------------

 done


 done


 done


 done


 done

 Cycle:   9000
  WF centre and spread    1  (  0.730084, -0.558830,  0.051919 )     1.26060616
  WF centre and spread    2  (  1.095367, -1.076076, -1.066451 )     1.31317270
  WF centre and spread    3  (  0.729910,  0.052696, -0.559031 )     1.25819609
  WF centre and spread    4  (  1.360181, -0.531093, -0.529506 )     1.23702950
  WF centre and spread    5  (  0.072366, -0.885966, -0.346247 )     1.26724476
  WF centre and spread    6  ( -0.729116,  0.560688, -0.052366 )     1.26035900
  WF centre and spread    7  ( -1.097515,  1.072451,  1.067584 )     1.31380356
  WF centre and spread    8  ( -0.728145, -0.051646,  0.557560 )     1.25922410
  WF centre and spread    9  ( -1.359254,  0.528733,  0.528459 )     1.23748216
  WF centre and spread   10  ( -0.073436,  0.889804,  0.346412 )     1.26741429
  WF centre and spread   11  ( -0.078706,  0.344450,  0.898066 )     1.26943459
  WF centre and spread   12  ( -0.768204,  0.398937,  1.312488 )     1.24245047
  WF centre and spread   13  ( -0.381811,  1.028767,  1.030394 )     1.22848598
  WF centre and spread   14  ( -0.759550,  1.314428,  0.397434 )     1.24433117
  WF centre and spread   15  (  0.080747, -0.343189, -0.900029 )     1.26950196
  WF centre and spread   16  ( -1.918765, -0.401786,  1.375781 )     1.24251947
  WF centre and spread   17  (  0.379664,  1.660796,  1.660767 )     1.22818702
  WF centre and spread   18  ( -1.932754,  1.376047, -0.394730 )     1.24473795
  WF centre and spread   19  ( -1.736868,  1.464735,  2.255924 )     2.17947816
  WF centre and spread   20  (  0.031937,  1.858793, -0.827364 )     2.14787317
  WF centre and spread   21  ( -2.192177, -0.268144, -0.268016 )     2.24346380
  WF centre and spread   22  (  0.949109, -0.437333,  1.460129 )     2.18081647
  WF centre and spread   23  (  1.740488, -1.460833, -2.250697 )     2.18428553
  WF centre and spread   24  ( -0.030973, -1.860366,  0.826923 )     2.14707134
  WF centre and spread   25  (  2.189699,  0.272018,  0.265452 )     2.24352097
  WF centre and spread   26  ( -0.951932,  0.436133, -1.462055 )     2.17929587
  Sum of centres and spreads ( -5.379654,  5.384216,  5.378799 )    40.14998628
 
   9000    -0.144E-11     0.0000058071       40.1499862771     370.55  <-- CONV
        O_D=      0.1086230 O_OD=      8.8343592 O_TOT=     40.1499863 <-- SPRD
 Delta: O_D= -0.8590073E-12 O_OD= -0.5737633E-12 O_TOT= -0.1435296E-11 <-- DLTA
 ------------------------------------------------------------------------------

 done


 done


 done


 done


 done

 Cycle:   9500
  WF centre and spread    1  (  0.730082, -0.558831,  0.051918 )     1.26060763
  WF centre and spread    2  (  1.095368, -1.076081, -1.066444 )     1.31317302
  WF centre and spread    3  (  0.729909,  0.052697, -0.559031 )     1.25819459
  WF centre and spread    4  (  1.360181, -0.531093, -0.529504 )     1.23702964
  WF centre and spread    5  (  0.072361, -0.885958, -0.346250 )     1.26724316
  WF centre and spread    6  ( -0.729114,  0.560689, -0.052366 )     1.26036036
  WF centre and spread    7  ( -1.097517,  1.072455,  1.067577 )     1.31380406
  WF centre and spread    8  ( -0.728143, -0.051647,  0.557560 )     1.25922275
  WF centre and spread    9  ( -1.359253,  0.528732,  0.528456 )     1.23748231
  WF centre and spread   10  ( -0.073431,  0.889798,  0.346414 )     1.26741273
  WF centre and spread   11  ( -0.078710,  0.344450,  0.898075 )     1.26943573
  WF centre and spread   12  ( -0.768212,  0.398941,  1.312488 )     1.24244990
  WF centre and spread   13  ( -0.381813,  1.028768,  1.030396 )     1.22848554
  WF centre and spread   14  ( -0.759543,  1.314428,  0.397431 )     1.24433192
  WF centre and spread   15  (  0.080752, -0.343188, -0.900038 )     1.26950331
  WF centre and spread   16  ( -1.918756, -0.401790,  1.375782 )     1.24251880
  WF centre and spread   17  (  0.379666,  1.660795,  1.660766 )     1.22818674
  WF centre and spread   18  ( -1.932762,  1.376048, -0.394726 )     1.24473873
  WF centre and spread   19  ( -1.736868,  1.464735,  2.255924 )     2.17947788
  WF centre and spread   20  (  0.031937,  1.858793, -0.827364 )     2.14787308
  WF centre and spread   21  ( -2.192177, -0.268144, -0.268016 )     2.24346393
  WF centre and spread   22  (  0.949109, -0.437333,  1.460129 )     2.18081678
  WF centre and spread   23  (  1.740488, -1.460833, -2.250698 )     2.18428520
  WF centre and spread   24  ( -0.030973, -1.860366,  0.826923 )     2.14707124
  WF centre and spread   25  (  2.189699,  0.272018,  0.265452 )     2.24352105
  WF centre and spread   26  ( -0.951932,  0.436133, -1.462055 )     2.17929620
  Sum of centres and spreads ( -5.379654,  5.384216,  5.378799 )    40.14998627
 
   9500    -0.205E-11     0.0000056561       40.1499862689     381.97  <-- CONV
        O_D=      0.1086230 O_OD=      8.8343591 O_TOT=     40.1499863 <-- SPRD
 Delta: O_D= -0.1241340E-11 O_OD= -0.8153478E-12 O_TOT= -0.2053469E-11 <-- DLTA
 ------------------------------------------------------------------------------

 done


 done


 done


 done


 done

 Cycle:  10000
  WF centre and spread    1  (  0.730081, -0.558832,  0.051918 )     1.26060902
  WF centre and spread    2  (  1.095370, -1.076086, -1.066438 )     1.31317332
  WF centre and spread    3  (  0.729908,  0.052697, -0.559031 )     1.25819316
  WF centre and spread    4  (  1.360180, -0.531092, -0.529502 )     1.23702977
  WF centre and spread    5  (  0.072356, -0.885951, -0.346252 )     1.26724163
  WF centre and spread    6  ( -0.729113,  0.560690, -0.052365 )     1.26036164
  WF centre and spread    7  ( -1.097519,  1.072459,  1.067571 )     1.31380453
  WF centre and spread    8  ( -0.728141, -0.051647,  0.557560 )     1.25922147
  WF centre and spread    9  ( -1.359251,  0.528731,  0.528454 )     1.23748246
  WF centre and spread   10  ( -0.073427,  0.889791,  0.346417 )     1.26741124
  WF centre and spread   11  ( -0.078713,  0.344449,  0.898084 )     1.26943682
  WF centre and spread   12  ( -0.768220,  0.398944,  1.312487 )     1.24244936
  WF centre and spread   13  ( -0.381816,  1.028769,  1.030398 )     1.22848513
  WF centre and spread   14  ( -0.759536,  1.314428,  0.397427 )     1.24433264
  WF centre and spread   15  (  0.080756, -0.343187, -0.900047 )     1.26950459
  WF centre and spread   16  ( -1.918748, -0.401793,  1.375782 )     1.24251817
  WF centre and spread   17  (  0.379667,  1.660795,  1.660765 )     1.22818646
  WF centre and spread   18  ( -1.932770,  1.376048, -0.394722 )     1.24473946
  WF centre and spread   19  ( -1.736867,  1.464735,  2.255924 )     2.17947761
  WF centre and spread   20  (  0.031937,  1.858793, -0.827364 )     2.14787299
  WF centre and spread   21  ( -2.192177, -0.268144, -0.268016 )     2.24346405
  WF centre and spread   22  (  0.949109, -0.437333,  1.460129 )     2.18081707
  WF centre and spread   23  (  1.740488, -1.460833, -2.250698 )     2.18428488
  WF centre and spread   24  ( -0.030973, -1.860365,  0.826923 )     2.14707115
  WF centre and spread   25  (  2.189699,  0.272018,  0.265452 )     2.24352112
  WF centre and spread   26  ( -0.951932,  0.436133, -1.462055 )     2.17929652
  Sum of centres and spreads ( -5.379654,  5.384216,  5.378799 )    40.14998626
 
  10000    -0.654E-12     0.0000055126       40.1499862613     394.36  <-- CONV
        O_D=      0.1086230 O_OD=      8.8343591 O_TOT=     40.1499863 <-- SPRD
 Delta: O_D= -0.3991529E-12 O_OD= -0.2522427E-12 O_TOT= -0.6536993E-12 <-- DLTA
 ------------------------------------------------------------------------------

 done

 Final State
  WF centre and spread    1  (  0.730081, -0.558832,  0.051918 )     1.26060902
  WF centre and spread    2  (  1.095370, -1.076086, -1.066438 )     1.31317332
  WF centre and spread    3  (  0.729908,  0.052697, -0.559031 )     1.25819316
  WF centre and spread    4  (  1.360180, -0.531092, -0.529502 )     1.23702977
  WF centre and spread    5  (  0.072356, -0.885951, -0.346252 )     1.26724163
  WF centre and spread    6  ( -0.729113,  0.560690, -0.052365 )     1.26036164
  WF centre and spread    7  ( -1.097519,  1.072459,  1.067571 )     1.31380453
  WF centre and spread    8  ( -0.728141, -0.051647,  0.557560 )     1.25922147
  WF centre and spread    9  ( -1.359251,  0.528731,  0.528454 )     1.23748246
  WF centre and spread   10  ( -0.073427,  0.889791,  0.346417 )     1.26741124
  WF centre and spread   11  ( -0.078713,  0.344449,  0.898084 )     1.26943682
  WF centre and spread   12  ( -0.768220,  0.398944,  1.312487 )     1.24244936
  WF centre and spread   13  ( -0.381816,  1.028769,  1.030398 )     1.22848513
  WF centre and spread   14  ( -0.759536,  1.314428,  0.397427 )     1.24433264
  WF centre and spread   15  (  0.080756, -0.343187, -0.900047 )     1.26950459
  WF centre and spread   16  ( -1.918748, -0.401793,  1.375782 )     1.24251817
  WF centre and spread   17  (  0.379667,  1.660795,  1.660765 )     1.22818646
  WF centre and spread   18  ( -1.932770,  1.376048, -0.394722 )     1.24473946
  WF centre and spread   19  ( -1.736867,  1.464735,  2.255924 )     2.17947761
  WF centre and spread   20  (  0.031937,  1.858793, -0.827364 )     2.14787299
  WF centre and spread   21  ( -2.192177, -0.268144, -0.268016 )     2.24346405
  WF centre and spread   22  (  0.949109, -0.437333,  1.460129 )     2.18081707
  WF centre and spread   23  (  1.740488, -1.460833, -2.250698 )     2.18428488
  WF centre and spread   24  ( -0.030973, -1.860365,  0.826923 )     2.14707115
  WF centre and spread   25  (  2.189699,  0.272018,  0.265452 )     2.24352112
  WF centre and spread   26  ( -0.951932,  0.436133, -1.462055 )     2.17929652
  Sum of centres and spreads ( -5.379654,  5.384216,  5.378799 )    40.14998626
 
         Spreads (Ang^2)       Omega I      =    31.207004140
        ================       Omega D      =     0.108622975
                               Omega OD     =     8.834359146
    Final Spread (Ang^2)       Omega Total  =    40.149986261
 ------------------------------------------------------------------------------
 Time for wannierise          261.302 (sec)

 done

 *---------------------------------------------------------------------------*
 |                               PLOTTING                                    |
 *---------------------------------------------------------------------------*
 
 
 Calculating interpolated band-structure
 
 Time to calculate interpolated band structure      63.025 (sec)
 
 Time for plotting             75.401 (sec)
 Total Execution Time         452.180 (sec)

 *===========================================================================*
 |                             TIMING INFORMATION                            |
 *===========================================================================*
 |    Tag                                                Ncalls      Time (s)|
 |---------------------------------------------------------------------------|
 |kmesh: get                                        :         1         1.720|
 |overlap: allocate                                 :         1         0.020|
 |overlap: read                                     :         1        19.580|
 |dis: main                                         :         1        92.722|
 |wann: main                                        :         1       261.302|
 |plot: main                                        :         1        75.401|
 *---------------------------------------------------------------------------*
 
 All done: wannier90 exiting
