 BEGIN_INFO
   #
   # this is a Band-XCRYSDEN-Structure-File
   # aimed at Visualization of Fermi Surface
   #
   # Case:   BAs_fs.bxsf
   #
 Fermi Energy:          0.0000
 END_INFO
 BEGIN_BLOCK_BANDGRID_3D
 band_energies
 BANDGRID_3D_BANDS
    5
   25   25   25
  0.000000  0.000000  0.000000
 -1.000000 -1.000000  1.000000
  1.000000  1.000000  1.000000
 -1.000000  1.000000 -1.000000
BAND:   1
   -6.8712   -6.8422   -6.7553   -6.6113   -6.4113   -6.1576
   -5.8538   -5.5058   -5.1238   -4.7268   -4.3501   -4.0590
   -3.9447   -4.0590   -4.3501   -4.7268   -5.1238   -5.5058
   -5.8538   -6.1576   -6.4113   -6.6113   -6.7553   -6.8422
   -6.8712   -6.8422   -6.8325   -6.7649   -6.6398   -6.4584
   -6.2225   -5.9352   -5.6013   -5.2294   -4.8349   -4.4465
   -4.1178   -3.9351   -3.9739   -4.2161   -4.5728   -4.9677
   -5.3570   -5.7175   -6.0365   -6.3072   -6.5251   -6.6879
   -6.7938   -6.8422   -6.7553   -6.7649   -6.7166   -6.6107
   -6.4482   -6.2306   -5.9605   -5.6422   -5.2826   -4.8945
   -4.5011   -4.1461   -3.9055   -3.8674   -4.0494   -4.3767
   -4.7636   -5.1567   -5.5274   -5.8604   -6.1470   -6.3823
   -6.5632   -6.6879   -6.7553   -6.6113   -6.6398   -6.6107
   -6.5241   -6.3806   -6.1817   -5.9296   -5.6279   -5.2825
   -4.9040   -4.5112   -4.1396   -3.8537   -3.7428   -3.8564
   -4.1438   -4.5156   -4.9083   -5.2864   -5.6312   -5.9323
   -6.1839   -6.3823   -6.5251   -6.6113   -6.4113   -6.4584
   -6.4482   -6.3806   -6.2563   -6.0764   -5.8427   -5.5584
   -5.2287   -4.8624   -4.4749   -4.0953   -3.7768   -3.6028
   -3.6440   -3.8812   -4.2297   -4.6163   -4.9981   -5.3521
   -5.6660   -5.9323   -6.1470   -6.3072   -6.4113   -6.1576
   -6.2225   -6.2306   -6.1817   -6.0764   -5.9154   -5.7005
   -5.4344   -5.1216   -4.7696   -4.3916   -4.0111   -3.6723
   -3.4485   -3.4200   -3.5991   -3.9149   -4.2884   -4.6688
   -5.0285   -5.3521   -5.6312   -5.8604   -6.0365   -6.1576
   -5.8538   -5.9352   -5.9605   -5.9296   -5.8427   -5.7005
   -5.5044   -5.2570   -4.9622   -4.6266   -4.2614   -3.8868
   -3.5392   -3.2814   -3.1933   -3.3110   -3.5853   -3.9370
   -4.3091   -4.6688   -4.9981   -5.2864   -5.5274   -5.7175
   -5.8538   -5.5058   -5.6013   -5.6422   -5.6279   -5.5584
   -5.4344   -5.2570   -5.0285   -4.7526   -4.4352   -4.0865
   -3.7239   -3.3787   -3.1047   -2.9747   -3.0369   -3.2632
   -3.5830   -3.9370   -4.2884   -4.6163   -4.9083   -5.1567
   -5.3570   -5.5058   -5.1238   -5.2294   -5.2826   -5.2825
   -5.2287   -5.1216   -4.9622   -4.7526   -4.4962   -4.1990
   -3.8703   -3.5265   -3.1961   -2.9264   -2.7809   -2.8054
   -2.9851   -3.2632   -3.5853   -3.9149   -4.2297   -4.5156
   -4.7636   -4.9677   -5.1238   -4.7268   -4.8349   -4.8945
   -4.9040   -4.8624   -4.7696   -4.6266   -4.4352   -4.1990
   -3.9239   -3.6197   -3.3032   -3.0029   -2.7633   -2.6378
   -2.6576   -2.8054   -3.0369   -3.3110   -3.5991   -3.8812
   -4.1438   -4.3767   -4.5728   -4.7268   -4.3501   -4.4465
   -4.5011   -4.5112   -4.4749   -4.3916   -4.2614   -4.0865
   -3.8703   -3.6197   -3.3460   -3.0689   -2.8203   -2.6448
   -2.5823   -2.6378   -2.7809   -2.9747   -3.1933   -3.4200
   -3.6440   -3.8564   -4.0494   -4.2161   -4.3501   -4.0590
   -4.1178   -4.1461   -4.1396   -4.0953   -4.0111   -3.8868
   -3.7239   -3.5265   -3.3032   -3.0689   -2.8491   -2.6824
   -2.6096   -2.6448   -2.7633   -2.9264   -3.1047   -3.2814
   -3.4485   -3.6028   -3.7428   -3.8674   -3.9739   -4.0590
   -3.9447   -3.9351   -3.9055   -3.8537   -3.7768   -3.6723
   -3.5392   -3.3787   -3.1961   -3.0029   -2.8203   -2.6824
   -2.6298   -2.6824   -2.8203   -3.0029   -3.1961   -3.3787
   -3.5392   -3.6723   -3.7768   -3.8537   -3.9055   -3.9351
   -3.9447   -4.0590   -3.9739   -3.8674   -3.7428   -3.6028
   -3.4485   -3.2814   -3.1047   -2.9264   -2.7633   -2.6448
   -2.6096   -2.6824   -2.8491   -3.0689   -3.3032   -3.5265
   -3.7239   -3.8868   -4.0111   -4.0953   -4.1396   -4.1461
   -4.1178   -4.0590   -4.3501   -4.2161   -4.0494   -3.8564
   -3.6440   -3.4200   -3.1933   -2.9747   -2.7809   -2.6378
   -2.5823   -2.6448   -2.8203   -3.0689   -3.3460   -3.6197
   -3.8703   -4.0865   -4.2614   -4.3916   -4.4749   -4.5112
   -4.5011   -4.4465   -4.3501   -4.7268   -4.5728   -4.3767
   -4.1438   -3.8812   -3.5991   -3.3110   -3.0369   -2.8054
   -2.6576   -2.6378   -2.7633   -3.0029   -3.3032   -3.6197
   -3.9239   -4.1990   -4.4352   -4.6266   -4.7696   -4.8624
   -4.9040   -4.8945   -4.8349   -4.7268   -5.1238   -4.9677
   -4.7636   -4.5156   -4.2297   -3.9149   -3.5853   -3.2632
   -2.9851   -2.8054   -2.7809   -2.9264   -3.1961   -3.5265
   -3.8703   -4.1990   -4.4962   -4.7526   -4.9622   -5.1216
   -5.2287   -5.2825   -5.2826   -5.2294   -5.1238   -5.5058
   -5.3570   -5.1567   -4.9083   -4.6163   -4.2884   -3.9370
   -3.5830   -3.2632   -3.0369   -2.9747   -3.1047   -3.3787
   -3.7239   -4.0865   -4.4352   -4.7526   -5.0285   -5.2570
   -5.4344   -5.5584   -5.6279   -5.6422   -5.6013   -5.5058
   -5.8538   -5.7175   -5.5274   -5.2864   -4.9981   -4.6688
   -4.3091   -3.9370   -3.5853   -3.3110   -3.1933   -3.2814
   -3.5392   -3.8868   -4.2614   -4.6266   -4.9622   -5.2570
   -5.5044   -5.7005   -5.8427   -5.9296   -5.9605   -5.9352
   -5.8538   -6.1576   -6.0365   -5.8604   -5.6312   -5.3521
   -5.0285   -4.6688   -4.2884   -3.9149   -3.5991   -3.4200
   -3.4485   -3.6723   -4.0111   -4.3916   -4.7696   -5.1216
   -5.4344   -5.7005   -5.9154   -6.0764   -6.1817   -6.2306
   -6.2225   -6.1576   -6.4113   -6.3072   -6.1470   -5.9323
   -5.6660   -5.3521   -4.9981   -4.6163   -4.2297   -3.8812
   -3.6440   -3.6028   -3.7768   -4.0953   -4.4749   -4.8624
   -5.2287   -5.5584   -5.8427   -6.0764   -6.2563   -6.3806
   -6.4482   -6.4584   -6.4113   -6.6113   -6.5251   -6.3823
   -6.1839   -5.9323   -5.6312   -5.2864   -4.9083   -4.5156
   -4.1438   -3.8564   -3.7428   -3.8537   -4.1396   -4.5112
   -4.9040   -5.2825   -5.6279   -5.9296   -6.1817   -6.3806
   -6.5241   -6.6107   -6.6398   -6.6113   -6.7553   -6.6879
   -6.5632   -6.3823   -6.1470   -5.8604   -5.5274   -5.1567
   -4.7636   -4.3767   -4.0494   -3.8674   -3.9055   -4.1461
   -4.5011   -4.8945   -5.2826   -5.6422   -5.9605   -6.2306
   -6.4482   -6.6107   -6.7166   -6.7649   -6.7553   -6.8422
   -6.7938   -6.6879   -6.5251   -6.3072   -6.0365   -5.7175
   -5.3570   -4.9677   -4.5728   -4.2161   -3.9739   -3.9351
   -4.1178   -4.4465   -4.8349   -5.2294   -5.6013   -5.9352
   -6.2225   -6.4584   -6.6398   -6.7649   -6.8325   -6.8422
   -6.8712   -6.8422   -6.7553   -6.6113   -6.4113   -6.1576
   -5.8538   -5.5058   -5.1238   -4.7268   -4.3501   -4.0590
   -3.9447   -4.0590   -4.3501   -4.7268   -5.1238   -5.5058
   -5.8538   -6.1576   -6.4113   -6.6113   -6.7553   -6.8422
   -6.8712   -6.8422   -6.8325   -6.7649   -6.6398   -6.4584
   -6.2225   -5.9352   -5.6013   -5.2294   -4.8349   -4.4465
   -4.1178   -3.9351   -3.9739   -4.2161   -4.5728   -4.9677
   -5.3570   -5.7175   -6.0365   -6.3072   -6.5251   -6.6879
   -6.7938   -6.8422   -6.8325   -6.8422   -6.7938   -6.6879
   -6.5251   -6.3072   -6.0365   -5.7175   -5.3570   -4.9677
   -4.5728   -4.2161   -3.9739   -3.9351   -4.1178   -4.4465
   -4.8349   -5.2294   -5.6013   -5.9352   -6.2225   -6.4584
   -6.6398   -6.7649   -6.8325   -6.7649   -6.7938   -6.7649
   -6.6781   -6.5343   -6.3348   -6.0818   -5.7787   -5.4316
   -5.0508   -4.6551   -4.2800   -3.9902   -3.8766   -3.9902
   -4.2800   -4.6551   -5.0508   -5.4316   -5.7787   -6.0818
   -6.3348   -6.5343   -6.6781   -6.7649   -6.6398   -6.6879
   -6.6781   -6.6107   -6.4861   -6.3054   -6.0705   -5.7844
   -5.4522   -5.0826   -4.6907   -4.3054   -3.9802   -3.7999
   -3.8388   -4.0786   -4.4321   -4.8240   -5.2106   -5.5689
   -5.8863   -6.1555   -6.3724   -6.5343   -6.6398   -6.4584
   -6.5251   -6.5343   -6.4861   -6.3806   -6.2190   -6.0027
   -5.7344   -5.4184   -5.0620   -4.6779   -4.2893   -3.9401
   -3.7049   -3.6691   -3.8489   -4.1715   -4.5533   -4.9418
   -5.3086   -5.6383   -5.9223   -6.1555   -6.3348   -6.4584
   -6.2225   -6.3072   -6.3348   -6.3054   -6.2190   -6.0764
   -5.8790   -5.6290   -5.3303   -4.9890   -4.6158   -4.2299
   -3.8669   -3.5903   -3.4862   -3.5996   -3.8812   -4.2455
   -4.6306   -5.0022   -5.3415   -5.6383   -5.8863   -6.0818
   -6.2225   -5.9352   -6.0365   -6.0818   -6.0705   -6.0027
   -5.8790   -5.7005   -5.4693   -5.1887   -4.8641   -4.5046
   -4.1265   -3.7589   -3.4553   -3.2949   -3.3413   -3.5732
   -3.9109   -4.2859   -4.6571   -5.0022   -5.3086   -5.5689
   -5.7787   -5.9352   -5.6013   -5.7175   -5.7787   -5.7844
   -5.7344   -5.6290   -5.4693   -5.2570   -4.9952   -4.6887
   -4.3456   -3.9799   -3.6164   -3.3000   -3.1006   -3.0877
   -3.2650   -3.5668   -3.9225   -4.2859   -4.6306   -4.9418
   -5.2106   -5.4316   -5.6013   -5.2294   -5.3570   -5.4316
   -5.4522   -5.4184   -5.3303   -5.1887   -4.9952   -4.7526
   -4.4655   -4.1414   -3.7929   -3.4423   -3.1282   -2.9115
   -2.8577   -2.9840   -3.2421   -3.5668   -3.9109   -4.2455
   -4.5533   -4.8240   -5.0508   -5.2294   -4.8349   -4.9677
   -5.0508   -5.0826   -5.0620   -4.9890   -4.8641   -4.6887
   -4.4655   -4.1990   -3.8967   -3.5710   -3.2432   -2.9494
   -2.7430   -2.6787   -2.7712   -2.9840   -3.2650   -3.5732
   -3.8812   -4.1715   -4.4321   -4.6551   -4.8349   -4.4465
   -4.5728   -4.6551   -4.6907   -4.6779   -4.6158   -4.5046
   -4.3456   -4.1414   -3.8967   -3.6197   -3.3240   -3.0327
   -2.7826   -2.6221   -2.5884   -2.6787   -2.8577   -3.0877
   -3.3413   -3.5996   -3.8489   -4.0786   -4.2800   -4.4465
   -4.1178   -4.2161   -4.2800   -4.3054   -4.2893   -4.2299
   -4.1265   -3.9799   -3.7929   -3.5710   -3.3240   -3.0689
   -2.8338   -2.6593   -2.5853   -2.6221   -2.7430   -2.9115
   -3.1006   -3.2949   -3.4862   -3.6691   -3.8388   -3.9902
   -4.1178   -3.9351   -3.9739   -3.9902   -3.9802   -3.9401
   -3.8669   -3.7589   -3.6164   -3.4423   -3.2432   -3.0327
   -2.8338   -2.6824   -2.6186   -2.6593   -2.7826   -2.9494
   -3.1282   -3.3000   -3.4553   -3.5903   -3.7049   -3.7999
   -3.8766   -3.9351   -3.9739   -3.9351   -3.8766   -3.7999
   -3.7049   -3.5903   -3.4553   -3.3000   -3.1282   -2.9494
   -2.7826   -2.6593   -2.6186   -2.6824   -2.8338   -3.0327
   -3.2432   -3.4423   -3.6164   -3.7589   -3.8669   -3.9401
   -3.9802   -3.9902   -3.9739   -4.2161   -4.1178   -3.9902
   -3.8388   -3.6691   -3.4862   -3.2949   -3.1006   -2.9115
   -2.7430   -2.6221   -2.5853   -2.6593   -2.8338   -3.0689
   -3.3240   -3.5710   -3.7929   -3.9799   -4.1265   -4.2299
   -4.2893   -4.3054   -4.2800   -4.2161   -4.5728   -4.4465
   -4.2800   -4.0786   -3.8489   -3.5996   -3.3413   -3.0877
   -2.8577   -2.6787   -2.5884   -2.6221   -2.7826   -3.0327
   -3.3240   -3.6197   -3.8967   -4.1414   -4.3456   -4.5046
   -4.6158   -4.6779   -4.6907   -4.6551   -4.5728   -4.9677
   -4.8349   -4.6551   -4.4321   -4.1715   -3.8812   -3.5732
   -3.2650   -2.9840   -2.7712   -2.6787   -2.7430   -2.9494
   -3.2432   -3.5710   -3.8967   -4.1990   -4.4655   -4.6887
   -4.8641   -4.9890   -5.0620   -5.0826   -5.0508   -4.9677
   -5.3570   -5.2294   -5.0508   -4.8240   -4.5533   -4.2455
   -3.9109   -3.5668   -3.2421   -2.9840   -2.8577   -2.9115
   -3.1282   -3.4423   -3.7929   -4.1414   -4.4655   -4.7526
   -4.9952   -5.1887   -5.3303   -5.4184   -5.4522   -5.4316
   -5.3570   -5.7175   -5.6013   -5.4316   -5.2106   -4.9418
   -4.6306   -4.2859   -3.9225   -3.5668   -3.2650   -3.0877
   -3.1006   -3.3000   -3.6164   -3.9799   -4.3456   -4.6887
   -4.9952   -5.2570   -5.4693   -5.6290   -5.7344   -5.7844
   -5.7787   -5.7175   -6.0365   -5.9352   -5.7787   -5.5689
   -5.3086   -5.0022   -4.6571   -4.2859   -3.9109   -3.5732
   -3.3413   -3.2949   -3.4553   -3.7589   -4.1265   -4.5046
   -4.8641   -5.1887   -5.4693   -5.7005   -5.8790   -6.0027
   -6.0705   -6.0818   -6.0365   -6.3072   -6.2225   -6.0818
   -5.8863   -5.6383   -5.3415   -5.0022   -4.6306   -4.2455
   -3.8812   -3.5996   -3.4862   -3.5903   -3.8669   -4.2299
   -4.6158   -4.9890   -5.3303   -5.6290   -5.8790   -6.0764
   -6.2190   -6.3054   -6.3348   -6.3072   -6.5251   -6.4584
   -6.3348   -6.1555   -5.9223   -5.6383   -5.3086   -4.9418
   -4.5533   -4.1715   -3.8489   -3.6691   -3.7049   -3.9401
   -4.2893   -4.6779   -5.0620   -5.4184   -5.7344   -6.0027
   -6.2190   -6.3806   -6.4861   -6.5343   -6.5251   -6.6879
   -6.6398   -6.5343   -6.3724   -6.1555   -5.8863   -5.5689
   -5.2106   -4.8240   -4.4321   -4.0786   -3.8388   -3.7999
   -3.9802   -4.3054   -4.6907   -5.0826   -5.4522   -5.7844
   -6.0705   -6.3054   -6.4861   -6.6107   -6.6781   -6.6879
   -6.7938   -6.7649   -6.6781   -6.5343   -6.3348   -6.0818
   -5.7787   -5.4316   -5.0508   -4.6551   -4.2800   -3.9902
   -3.8766   -3.9902   -4.2800   -4.6551   -5.0508   -5.4316
   -5.7787   -6.0818   -6.3348   -6.5343   -6.6781   -6.7649
   -6.7938   -6.8422   -6.8325   -6.7649   -6.6398   -6.4584
   -6.2225   -5.9352   -5.6013   -5.2294   -4.8349   -4.4465
   -4.1178   -3.9351   -3.9739   -4.2161   -4.5728   -4.9677
   -5.3570   -5.7175   -6.0365   -6.3072   -6.5251   -6.6879
   -6.7938   -6.8422   -6.7553   -6.7649   -6.7166   -6.6107
   -6.4482   -6.2306   -5.9605   -5.6422   -5.2826   -4.8945
   -4.5011   -4.1461   -3.9055   -3.8674   -4.0494   -4.3767
   -4.7636   -5.1567   -5.5274   -5.8604   -6.1470   -6.3823
   -6.5632   -6.6879   -6.7553   -6.7649   -6.7938   -6.7649
   -6.6781   -6.5343   -6.3348   -6.0818   -5.7787   -5.4316
   -5.0508   -4.6551   -4.2800   -3.9902   -3.8766   -3.9902
   -4.2800   -4.6551   -5.0508   -5.4316   -5.7787   -6.0818
   -6.3348   -6.5343   -6.6781   -6.7649   -6.7166   -6.7649
   -6.7553   -6.6879   -6.5632   -6.3823   -6.1470   -5.8604
   -5.5274   -5.1567   -4.7636   -4.3767   -4.0494   -3.8674
   -3.9055   -4.1461   -4.5011   -4.8945   -5.2826   -5.6422
   -5.9605   -6.2306   -6.4482   -6.6107   -6.7166   -6.6107
   -6.6781   -6.6879   -6.6398   -6.5343   -6.3724   -6.1555
   -5.8863   -5.5689   -5.2106   -4.8240   -4.4321   -4.0786
   -3.8388   -3.7999   -3.9802   -4.3054   -4.6907   -5.0826
   -5.4522   -5.7844   -6.0705   -6.3054   -6.4861   -6.6107
   -6.4482   -6.5343   -6.5632   -6.5343   -6.4482   -6.3054
   -6.1073   -5.8561   -5.5555   -5.2115   -4.8345   -4.4434
   -4.0735   -3.7886   -3.6771   -3.7886   -4.0735   -4.4434
   -4.8345   -5.2115   -5.5555   -5.8561   -6.1073   -6.3054
   -6.4482   -6.2306   -6.3348   -6.3823   -6.3724   -6.3054
   -6.1817   -6.0027   -5.7701   -5.4871   -5.1589   -4.7943
   -4.4088   -4.0311   -3.7139   -3.5396   -3.5785   -3.8128
   -4.1587   -4.5434   -4.9238   -5.2769   -5.5901   -5.8561
   -6.0705   -6.2306   -5.9605   -6.0818   -6.1470   -6.1555
   -6.1073   -6.0027   -5.8427   -5.6290   -5.3644   -5.0534
   -4.7034   -4.3276   -3.9495   -3.6125   -3.3888   -3.3580
   -3.5334   -3.8459   -4.2168   -4.5955   -4.9540   -5.2769
   -5.5555   -5.7844   -5.9605   -5.6422   -5.7787   -5.8604
   -5.8863   -5.8561   -5.7701   -5.6290   -5.4344   -5.1887
   -4.8959   -4.5627   -4.2002   -3.8284   -3.4833   -3.2263
   -3.1361   -3.2495   -3.5192   -3.8675   -4.2373   -4.5955
   -4.9238   -5.2115   -5.4522   -5.6422   -5.2826   -5.4316
   -5.5274   -5.5689   -5.5555   -5.4871   -5.3644   -5.1887
   -4.9622   -4.6887   -4.3742   -4.0287   -3.6696   -3.3277
   -3.0554   -2.9239   -2.9811   -3.2016   -3.5168   -3.8675
   -4.2168   -4.5434   -4.8345   -5.0826   -5.2826   -4.8945
   -5.0508   -5.1567   -5.2106   -5.2115   -5.1589   -5.0534
   -4.8959   -4.6887   -4.4352   -4.1414   -3.8167   -3.4773
   -3.1511   -2.8842   -2.7377   -2.7570   -2.9298   -3.2016
   -3.5192   -3.8459   -4.1587   -4.4434   -4.6907   -4.8945
   -4.5011   -4.6551   -4.7636   -4.8240   -4.8345   -4.7943
   -4.7034   -4.5627   -4.3742   -4.1414   -3.8703   -3.5710
   -3.2600   -2.9651   -2.7290   -2.6029   -2.6171   -2.7570
   -2.9811   -3.2495   -3.5334   -3.8128   -4.0735   -4.3054
   -4.5011   -4.1461   -4.2800   -4.3767   -4.4321   -4.4434
   -4.4088   -4.3276   -4.2002   -4.0287   -3.8167   -3.5710
   -3.3032   -3.0327   -2.7903   -2.6182   -2.5538   -2.6029
   -2.7377   -2.9239   -3.1361   -3.3580   -3.5785   -3.7886
   -3.9802   -4.1461   -3.9055   -3.9902   -4.0494   -4.0786
   -4.0735   -4.0311   -3.9495   -3.8284   -3.6696   -3.4773
   -3.2600   -3.0327   -2.8203   -2.6593   -2.5875   -2.6182
   -2.7290   -2.8842   -3.0554   -3.2263   -3.3888   -3.5396
   -3.6771   -3.7999   -3.9055   -3.8674   -3.8766   -3.8674
   -3.8388   -3.7886   -3.7139   -3.6125   -3.4833   -3.3277
   -3.1511   -2.9651   -2.7903   -2.6593   -2.6096   -2.6593
   -2.7903   -2.9651   -3.1511   -3.3277   -3.4833   -3.6125
   -3.7139   -3.7886   -3.8388   -3.8674   -4.0494   -3.9902
   -3.9055   -3.7999   -3.6771   -3.5396   -3.3888   -3.2263
   -3.0554   -2.8842   -2.7290   -2.6182   -2.5875   -2.6593
   -2.8203   -3.0327   -3.2600   -3.4773   -3.6696   -3.8284
   -3.9495   -4.0311   -4.0735   -4.0786   -4.0494   -4.3767
   -4.2800   -4.1461   -3.9802   -3.7886   -3.5785   -3.3580
   -3.1361   -2.9239   -2.7377   -2.6029   -2.5538   -2.6182
   -2.7903   -3.0327   -3.3032   -3.5710   -3.8167   -4.0287
   -4.2002   -4.3276   -4.4088   -4.4434   -4.4321   -4.3767
   -4.7636   -4.6551   -4.5011   -4.3054   -4.0735   -3.8128
   -3.5334   -3.2495   -2.9811   -2.7570   -2.6171   -2.6029
   -2.7290   -2.9651   -3.2600   -3.5710   -3.8703   -4.1414
   -4.3742   -4.5627   -4.7034   -4.7943   -4.8345   -4.8240
   -4.7636   -5.1567   -5.0508   -4.8945   -4.6907   -4.4434
   -4.1587   -3.8459   -3.5192   -3.2016   -2.9298   -2.7570
   -2.7377   -2.8842   -3.1511   -3.4773   -3.8167   -4.1414
   -4.4352   -4.6887   -4.8959   -5.0534   -5.1589   -5.2115
   -5.2106   -5.1567   -5.5274   -5.4316   -5.2826   -5.0826
   -4.8345   -4.5434   -4.2168   -3.8675   -3.5168   -3.2016
   -2.9811   -2.9239   -3.0554   -3.3277   -3.6696   -4.0287
   -4.3742   -4.6887   -4.9622   -5.1887   -5.3644   -5.4871
   -5.5555   -5.5689   -5.5274   -5.8604   -5.7787   -5.6422
   -5.4522   -5.2115   -4.9238   -4.5955   -4.2373   -3.8675
   -3.5192   -3.2495   -3.1361   -3.2263   -3.4833   -3.8284
   -4.2002   -4.5627   -4.8959   -5.1887   -5.4344   -5.6290
   -5.7701   -5.8561   -5.8863   -5.8604   -6.1470   -6.0818
   -5.9605   -5.7844   -5.5555   -5.2769   -4.9540   -4.5955
   -4.2168   -3.8459   -3.5334   -3.3580   -3.3888   -3.6125
   -3.9495   -4.3276   -4.7034   -5.0534   -5.3644   -5.6290
   -5.8427   -6.0027   -6.1073   -6.1555   -6.1470   -6.3823
   -6.3348   -6.2306   -6.0705   -5.8561   -5.5901   -5.2769
   -4.9238   -4.5434   -4.1587   -3.8128   -3.5785   -3.5396
   -3.7139   -4.0311   -4.4088   -4.7943   -5.1589   -5.4871
   -5.7701   -6.0027   -6.1817   -6.3054   -6.3724   -6.3823
   -6.5632   -6.5343   -6.4482   -6.3054   -6.1073   -5.8561
   -5.5555   -5.2115   -4.8345   -4.4434   -4.0735   -3.7886
   -3.6771   -3.7886   -4.0735   -4.4434   -4.8345   -5.2115
   -5.5555   -5.8561   -6.1073   -6.3054   -6.4482   -6.5343
   -6.5632   -6.6879   -6.6781   -6.6107   -6.4861   -6.3054
   -6.0705   -5.7844   -5.4522   -5.0826   -4.6907   -4.3054
   -3.9802   -3.7999   -3.8388   -4.0786   -4.4321   -4.8240
   -5.2106   -5.5689   -5.8863   -6.1555   -6.3724   -6.5343
   -6.6398   -6.6879   -6.7553   -6.7649   -6.7166   -6.6107
   -6.4482   -6.2306   -5.9605   -5.6422   -5.2826   -4.8945
   -4.5011   -4.1461   -3.9055   -3.8674   -4.0494   -4.3767
   -4.7636   -5.1567   -5.5274   -5.8604   -6.1470   -6.3823
   -6.5632   -6.6879   -6.7553   -6.6113   -6.6398   -6.6107
   -6.5241   -6.3806   -6.1817   -5.9296   -5.6279   -5.2825
   -4.9040   -4.5112   -4.1396   -3.8537   -3.7428   -3.8564
   -4.1438   -4.5156   -4.9083   -5.2864   -5.6312   -5.9323
   -6.1839   -6.3823   -6.5251   -6.6113   -6.6398   -6.6879
   -6.6781   -6.6107   -6.4861   -6.3054   -6.0705   -5.7844
   -5.4522   -5.0826   -4.6907   -4.3054   -3.9802   -3.7999
   -3.8388   -4.0786   -4.4321   -4.8240   -5.2106   -5.5689
   -5.8863   -6.1555   -6.3724   -6.5343   -6.6398   -6.6107
   -6.6781   -6.6879   -6.6398   -6.5343   -6.3724   -6.1555
   -5.8863   -5.5689   -5.2106   -4.8240   -4.4321   -4.0786
   -3.8388   -3.7999   -3.9802   -4.3054   -4.6907   -5.0826
   -5.4522   -5.7844   -6.0705   -6.3054   -6.4861   -6.6107
   -6.5241   -6.6107   -6.6398   -6.6113   -6.5251   -6.3823
   -6.1839   -5.9323   -5.6312   -5.2864   -4.9083   -4.5156
   -4.1438   -3.8564   -3.7428   -3.8537   -4.1396   -4.5112
   -4.9040   -5.2825   -5.6279   -5.9296   -6.1817   -6.3806
   -6.5241   -6.3806   -6.4861   -6.5343   -6.5251   -6.4584
   -6.3348   -6.1555   -5.9223   -5.6383   -5.3086   -4.9418
   -4.5533   -4.1715   -3.8489   -3.6691   -3.7049   -3.9401
   -4.2893   -4.6779   -5.0620   -5.4184   -5.7344   -6.0027
   -6.2190   -6.3806   -6.1817   -6.3054   -6.3724   -6.3823
   -6.3348   -6.2306   -6.0705   -5.8561   -5.5901   -5.2769
   -4.9238   -4.5434   -4.1587   -3.8128   -3.5785   -3.5396
   -3.7139   -4.0311   -4.4088   -4.7943   -5.1589   -5.4871
   -5.7701   -6.0027   -6.1817   -5.9296   -6.0705   -6.1555
   -6.1839   -6.1555   -6.0705   -5.9296   -5.7344   -5.4871
   -5.1915   -4.8540   -4.4851   -4.1037   -3.7448   -3.4702
   -3.3633   -3.4702   -3.7448   -4.1037   -4.4851   -4.8540
   -5.1915   -5.4871   -5.7344   -5.9296   -5.6279   -5.7844
   -5.8863   -5.9323   -5.9223   -5.8561   -5.7344   -5.5584
   -5.3303   -5.0534   -4.7331   -4.3786   -4.0059   -3.6437
   -3.3432   -3.1811   -3.2201   -3.4430   -3.7735   -4.1434
   -4.5112   -4.8540   -5.1589   -5.4184   -5.6279   -5.2825
   -5.4522   -5.5689   -5.6312   -5.6383   -5.5901   -5.4871
   -5.3303   -5.1216   -4.8641   -4.5627   -4.2255   -3.8665
   -3.5098   -3.1982   -2.9985   -2.9781   -3.1442   -3.4362
   -3.7848   -4.1434   -4.4851   -4.7943   -5.0620   -5.2825
   -4.9040   -5.0826   -5.2106   -5.2864   -5.3086   -5.2769
   -5.1915   -5.0534   -4.8641   -4.6266   -4.3456   -4.0287
   -3.6883   -3.3462   -3.0392   -2.8241   -2.7631   -2.8762
   -3.1212   -3.4362   -3.7735   -4.1037   -4.4088   -4.6779
   -4.9040   -4.5112   -4.6907   -4.8240   -4.9083   -4.9418
   -4.9238   -4.8540   -4.7331   -4.5627   -4.3456   -4.0865
   -3.7929   -3.4773   -3.1603   -2.8757   -2.6727   -2.6016
   -2.6794   -2.8762   -3.1442   -3.4430   -3.7448   -4.0311
   -4.2893   -4.5112   -4.1396   -4.3054   -4.4321   -4.5156
   -4.5533   -4.5434   -4.4851   -4.3786   -4.2255   -4.0287
   -3.7929   -3.5265   -3.2432   -2.9651   -2.7260   -2.5689
   -2.5273   -2.6016   -2.7631   -2.9781   -3.2201   -3.4702
   -3.7139   -3.9401   -4.1396   -3.8537   -3.9802   -4.0786
   -4.1438   -4.1715   -4.1587   -4.1037   -4.0059   -3.8665
   -3.6883   -3.4773   -3.2432   -3.0029   -2.7826   -2.6182
   -2.5438   -2.5689   -2.6727   -2.8241   -2.9985   -3.1811
   -3.3633   -3.5396   -3.7049   -3.8537   -3.7428   -3.7999
   -3.8388   -3.8564   -3.8489   -3.8128   -3.7448   -3.6437
   -3.5098   -3.3462   -3.1603   -2.9651   -2.7826   -2.6448
   -2.5853   -2.6182   -2.7260   -2.8757   -3.0392   -3.1982
   -3.3432   -3.4702   -3.5785   -3.6691   -3.7428   -3.8564
   -3.8388   -3.7999   -3.7428   -3.6691   -3.5785   -3.4702
   -3.3432   -3.1982   -3.0392   -2.8757   -2.7260   -2.6182
   -2.5853   -2.6448   -2.7826   -2.9651   -3.1603   -3.3462
   -3.5098   -3.6437   -3.7448   -3.8128   -3.8489   -3.8564
   -4.1438   -4.0786   -3.9802   -3.8537   -3.7049   -3.5396
   -3.3633   -3.1811   -2.9985   -2.8241   -2.6727   -2.5689
   -2.5438   -2.6182   -2.7826   -3.0029   -3.2432   -3.4773
   -3.6883   -3.8665   -4.0059   -4.1037   -4.1587   -4.1715
   -4.1438   -4.5156   -4.4321   -4.3054   -4.1396   -3.9401
   -3.7139   -3.4702   -3.2201   -2.9781   -2.7631   -2.6016
   -2.5273   -2.5689   -2.7260   -2.9651   -3.2432   -3.5265
   -3.7929   -4.0287   -4.2255   -4.3786   -4.4851   -4.5434
   -4.5533   -4.5156   -4.9083   -4.8240   -4.6907   -4.5112
   -4.2893   -4.0311   -3.7448   -3.4430   -3.1442   -2.8762
   -2.6794   -2.6016   -2.6727   -2.8757   -3.1603   -3.4773
   -3.7929   -4.0865   -4.3456   -4.5627   -4.7331   -4.8540
   -4.9238   -4.9418   -4.9083   -5.2864   -5.2106   -5.0826
   -4.9040   -4.6779   -4.4088   -4.1037   -3.7735   -3.4362
   -3.1212   -2.8762   -2.7631   -2.8241   -3.0392   -3.3462
   -3.6883   -4.0287   -4.3456   -4.6266   -4.8641   -5.0534
   -5.1915   -5.2769   -5.3086   -5.2864   -5.6312   -5.5689
   -5.4522   -5.2825   -5.0620   -4.7943   -4.4851   -4.1434
   -3.7848   -3.4362   -3.1442   -2.9781   -2.9985   -3.1982
   -3.5098   -3.8665   -4.2255   -4.5627   -4.8641   -5.1216
   -5.3303   -5.4871   -5.5901   -5.6383   -5.6312   -5.9323
   -5.8863   -5.7844   -5.6279   -5.4184   -5.1589   -4.8540
   -4.5112   -4.1434   -3.7735   -3.4430   -3.2201   -3.1811
   -3.3432   -3.6437   -4.0059   -4.3786   -4.7331   -5.0534
   -5.3303   -5.5584   -5.7344   -5.8561   -5.9223   -5.9323
   -6.1839   -6.1555   -6.0705   -5.9296   -5.7344   -5.4871
   -5.1915   -4.8540   -4.4851   -4.1037   -3.7448   -3.4702
   -3.3633   -3.4702   -3.7448   -4.1037   -4.4851   -4.8540
   -5.1915   -5.4871   -5.7344   -5.9296   -6.0705   -6.1555
   -6.1839   -6.3823   -6.3724   -6.3054   -6.1817   -6.0027
   -5.7701   -5.4871   -5.1589   -4.7943   -4.4088   -4.0311
   -3.7139   -3.5396   -3.5785   -3.8128   -4.1587   -4.5434
   -4.9238   -5.2769   -5.5901   -5.8561   -6.0705   -6.2306
   -6.3348   -6.3823   -6.5251   -6.5343   -6.4861   -6.3806
   -6.2190   -6.0027   -5.7344   -5.4184   -5.0620   -4.6779
   -4.2893   -3.9401   -3.7049   -3.6691   -3.8489   -4.1715
   -4.5533   -4.9418   -5.3086   -5.6383   -5.9223   -6.1555
   -6.3348   -6.4584   -6.5251   -6.6113   -6.6398   -6.6107
   -6.5241   -6.3806   -6.1817   -5.9296   -5.6279   -5.2825
   -4.9040   -4.5112   -4.1396   -3.8537   -3.7428   -3.8564
   -4.1438   -4.5156   -4.9083   -5.2864   -5.6312   -5.9323
   -6.1839   -6.3823   -6.5251   -6.6113   -6.4113   -6.4584
   -6.4482   -6.3806   -6.2563   -6.0764   -5.8427   -5.5584
   -5.2287   -4.8624   -4.4749   -4.0953   -3.7768   -3.6028
   -3.6440   -3.8812   -4.2297   -4.6163   -4.9981   -5.3521
   -5.6660   -5.9323   -6.1470   -6.3072   -6.4113   -6.4584
   -6.5251   -6.5343   -6.4861   -6.3806   -6.2190   -6.0027
   -5.7344   -5.4184   -5.0620   -4.6779   -4.2893   -3.9401
   -3.7049   -3.6691   -3.8489   -4.1715   -4.5533   -4.9418
   -5.3086   -5.6383   -5.9223   -6.1555   -6.3348   -6.4584
   -6.4482   -6.5343   -6.5632   -6.5343   -6.4482   -6.3054
   -6.1073   -5.8561   -5.5555   -5.2115   -4.8345   -4.4434
   -4.0735   -3.7886   -3.6771   -3.7886   -4.0735   -4.4434
   -4.8345   -5.2115   -5.5555   -5.8561   -6.1073   -6.3054
   -6.4482   -6.3806   -6.4861   -6.5343   -6.5251   -6.4584
   -6.3348   -6.1555   -5.9223   -5.6383   -5.3086   -4.9418
   -4.5533   -4.1715   -3.8489   -3.6691   -3.7049   -3.9401
   -4.2893   -4.6779   -5.0620   -5.4184   -5.7344   -6.0027
   -6.2190   -6.3806   -6.2563   -6.3806   -6.4482   -6.4584
   -6.4113   -6.3072   -6.1470   -5.9323   -5.6660   -5.3521
   -4.9981   -4.6163   -4.2297   -3.8812   -3.6440   -3.6028
   -3.7768   -4.0953   -4.4749   -4.8624   -5.2287   -5.5584
   -5.8427   -6.0764   -6.2563   -6.0764   -6.2190   -6.3054
   -6.3348   -6.3072   -6.2225   -6.0818   -5.8863   -5.6383
   -5.3415   -5.0022   -4.6306   -4.2455   -3.8812   -3.5996
   -3.4862   -3.5903   -3.8669   -4.2299   -4.6158   -4.9890
   -5.3303   -5.6290   -5.8790   -6.0764   -5.8427   -6.0027
   -6.1073   -6.1555   -6.1470   -6.0818   -5.9605   -5.7844
   -5.5555   -5.2769   -4.9540   -4.5955   -4.2168   -3.8459
   -3.5334   -3.3580   -3.3888   -3.6125   -3.9495   -4.3276
   -4.7034   -5.0534   -5.3644   -5.6290   -5.8427   -5.5584
   -5.7344   -5.8561   -5.9223   -5.9323   -5.8863   -5.7844
   -5.6279   -5.4184   -5.1589   -4.8540   -4.5112   -4.1434
   -3.7735   -3.4430   -3.2201   -3.1811   -3.3432   -3.6437
   -4.0059   -4.3786   -4.7331   -5.0534   -5.3303   -5.5584
   -5.2287   -5.4184   -5.5555   -5.6383   -5.6660   -5.6383
   -5.5555   -5.4184   -5.2287   -4.9890   -4.7034   -4.3786
   -4.0258   -3.6642   -3.3280   -3.0744   -2.9768   -3.0744
   -3.3280   -3.6642   -4.0258   -4.3786   -4.7034   -4.9890
   -5.2287   -4.8624   -5.0620   -5.2115   -5.3086   -5.3521
   -5.3415   -5.2769   -5.1589   -4.9890   -4.7696   -4.5046
   -4.2002   -3.8665   -3.5202   -3.1903   -2.9246   -2.7878
   -2.8272   -3.0269   -3.3252   -3.6642   -4.0059   -4.3276
   -4.6158   -4.8624   -4.4749   -4.6779   -4.8345   -4.9418
   -4.9981   -5.0022   -4.9540   -4.8540   -4.7034   -4.5046
   -4.2614   -3.9799   -3.6696   -3.3462   -3.0358   -2.7790
   -2.6296   -2.6303   -2.7775   -3.0269   -3.3280   -3.6437
   -3.9495   -4.2299   -4.4749   -4.0953   -4.2893   -4.4434
   -4.5533   -4.6163   -4.6306   -4.5955   -4.5112   -4.3786
   -4.2002   -3.9799   -3.7239   -3.4423   -3.1511   -2.8757
   -2.6527   -2.5244   -2.5189   -2.6303   -2.8272   -3.0744
   -3.3432   -3.6125   -3.8669   -4.0953   -3.7768   -3.9401
   -4.0735   -4.1715   -4.2297   -4.2455   -4.2168   -4.1434
   -4.0258   -3.8665   -3.6696   -3.4423   -3.1961   -2.9494
   -2.7290   -2.5689   -2.4983   -2.5244   -2.6296   -2.7878
   -2.9768   -3.1811   -3.3888   -3.5903   -3.7768   -3.6028
   -3.7049   -3.7886   -3.8489   -3.8812   -3.8812   -3.8459
   -3.7735   -3.6642   -3.5202   -3.3462   -3.1511   -2.9494
   -2.7633   -2.6221   -2.5538   -2.5689   -2.6527   -2.7790
   -2.9246   -3.0744   -3.2201   -3.3580   -3.4862   -3.6028
   -3.6440   -3.6691   -3.6771   -3.6691   -3.6440   -3.5996
   -3.5334   -3.4430   -3.3280   -3.1903   -3.0358   -2.8757
   -2.7290   -2.6221   -2.5823   -2.6221   -2.7290   -2.8757
   -3.0358   -3.1903   -3.3280   -3.4430   -3.5334   -3.5996
   -3.6440   -3.8812   -3.8489   -3.7886   -3.7049   -3.6028
   -3.4862   -3.3580   -3.2201   -3.0744   -2.9246   -2.7790
   -2.6527   -2.5689   -2.5538   -2.6221   -2.7633   -2.9494
   -3.1511   -3.3462   -3.5202   -3.6642   -3.7735   -3.8459
   -3.8812   -3.8812   -4.2297   -4.1715   -4.0735   -3.9401
   -3.7768   -3.5903   -3.3888   -3.1811   -2.9768   -2.7878