
     Program PWSCF v.6.4rc starts on 26Aug2019 at 16:45:31 

     This program is part of the open-source Quantum ESPRESSO suite
     for quantum simulation of materials; please cite
         "P. Giannozzi et al., J. Phys.:Condens. Matter 21 395502 (2009);
         "P. Giannozzi et al., J. Phys.:Condens. Matter 29 465901 (2017);
          URL http://www.quantum-espresso.org", 
     in publications or presentations arising from this work. More details at
     http://www.quantum-espresso.org/quote

     Parallel version (MPI), running on     4 processors

     MPI processes distributed on     1 nodes
     K-points division:     npool     =       4
     Waiting for input...
     Reading input from standard input
Warning: card &IONS ignored
Warning: card / ignored
Warning: card &CELL ignored
Warning: card / ignored

     Current dimensions of program PWSCF are:
     Max number of different atomic species (ntypx) = 10
     Max number of k-points (npk) =  40000
     Max angular momentum in pseudopotentials (lmaxx) =  3

     Atomic positions and unit cell read from directory:
     ./BAs.save/

               file B.cpi.UPF: wavefunction(s)  2s 2p 3d renormalized
               file As.cpi.UPF: wavefunction(s)  4s 4p 4d renormalized

     Subspace diagonalization in iterative solution of the eigenvalue problem:
     a serial algorithm will be used


     G-vector sticks info
     --------------------
     sticks:   dense  smooth     PW     G-vecs:    dense   smooth      PW
     Sum         559     559    169                 8609     8609    1471



     bravais-lattice index     =            0
     lattice parameter (alat)  =       8.9562  a.u.
     unit-cell volume          =     179.6024 (a.u.)^3
     number of atoms/cell      =            2
     number of atomic types    =            2
     number of electrons       =         8.00
     number of Kohn-Sham states=           12
     kinetic-energy cutoff     =      50.0000  Ry
     charge density cutoff     =     200.0000  Ry
     Exchange-correlation      = SLA  PZ   NOGX NOGC ( 1  1  0  0 0 0)

     celldm(1)=   8.956205  celldm(2)=   0.000000  celldm(3)=   0.000000
     celldm(4)=   0.000000  celldm(5)=   0.000000  celldm(6)=   0.000000

     crystal axes: (cart. coord. in units of alat)
               a(1) = (  -0.500000   0.000000   0.500000 )  
               a(2) = (   0.000000   0.500000   0.500000 )  
               a(3) = (  -0.500000   0.500000   0.000000 )  

     reciprocal axes: (cart. coord. in units 2 pi/alat)
               b(1) = ( -1.000000 -1.000000  1.000000 )  
               b(2) = (  1.000000  1.000000  1.000000 )  
               b(3) = ( -1.000000  1.000000 -1.000000 )  


     PseudoPot. # 1 for B  read from file:
     ./B.cpi.UPF
     MD5 check sum: 858e09cd2823d4a3381ad351fbe5daf8
     Pseudo is Norm-conserving, Zval =  3.0
     Generated using FHI98PP, converted with fhi2upf.x v.5.0.2
     Using radial grid of  991 points,  2 beta functions with: 
                l(1) =   0
                l(2) =   1

     PseudoPot. # 2 for As read from file:
     ./As.cpi.UPF
     MD5 check sum: 77982eeacdf728cf28132b225af03d26
     Pseudo is Norm-conserving, Zval =  5.0
     Generated by new atomic code, or converted to UPF format
     Using radial grid of 1142 points,  2 beta functions with: 
                l(1) =   0
                l(2) =   1

     atomic species   valence    mass     pseudopotential
        B              3.00    10.81000     B ( 1.00)
        As             5.00    74.92200     As( 1.00)

     24 Sym. Ops. (no inversion) found


                                    s                        frac. trans.

      isym =  1     identity                                     

 cryst.   s( 1) = (     1          0          0      )
                  (     0          1          0      )
                  (     0          0          1      )

 cart.    s( 1) = (  1.0000000  0.0000000  0.0000000 )
                  (  0.0000000  1.0000000  0.0000000 )
                  (  0.0000000  0.0000000  1.0000000 )


      isym =  2     180 deg rotation - cart. axis [0,0,1]        

 cryst.   s( 2) = (     0          1         -1      )
                  (     1          0         -1      )
                  (     0          0         -1      )

 cart.    s( 2) = ( -1.0000000  0.0000000  0.0000000 )
                  (  0.0000000 -1.0000000  0.0000000 )
                  (  0.0000000  0.0000000  1.0000000 )


      isym =  3     180 deg rotation - cart. axis [0,1,0]        

 cryst.   s( 3) = (    -1          0          0      )
                  (    -1          0          1      )
                  (    -1          1          0      )

 cart.    s( 3) = ( -1.0000000  0.0000000  0.0000000 )
                  (  0.0000000  1.0000000  0.0000000 )
                  (  0.0000000  0.0000000 -1.0000000 )


      isym =  4     180 deg rotation - cart. axis [1,0,0]        

 cryst.   s( 4) = (     0         -1          1      )
                  (     0         -1          0      )
                  (     1         -1          0      )

 cart.    s( 4) = (  1.0000000  0.0000000  0.0000000 )
                  (  0.0000000 -1.0000000  0.0000000 )
                  (  0.0000000  0.0000000 -1.0000000 )


      isym =  5     120 deg rotation - cart. axis [-1,-1,-1]     

 cryst.   s( 5) = (    -1          0          1      )
                  (    -1          1          0      )
                  (    -1          0          0      )

 cart.    s( 5) = (  0.0000000  1.0000000  0.0000000 )
                  (  0.0000000  0.0000000  1.0000000 )
                  (  1.0000000  0.0000000  0.0000000 )


      isym =  6     120 deg rotation - cart. axis [-1,1,1]       

 cryst.   s( 6) = (     0          1          0      )
                  (     0          0          1      )
                  (     1          0          0      )

 cart.    s( 6) = (  0.0000000 -1.0000000  0.0000000 )
                  (  0.0000000  0.0000000  1.0000000 )
                  ( -1.0000000  0.0000000  0.0000000 )


      isym =  7     120 deg rotation - cart. axis [1,1,-1]       

 cryst.   s( 7) = (     1          0         -1      )
                  (     0          0         -1      )
                  (     0          1         -1      )

 cart.    s( 7) = (  0.0000000  1.0000000  0.0000000 )
                  (  0.0000000  0.0000000 -1.0000000 )
                  ( -1.0000000  0.0000000  0.0000000 )


      isym =  8     120 deg rotation - cart. axis [1,-1,1]       

 cryst.   s( 8) = (     0         -1          0      )
                  (     1         -1          0      )
                  (     0         -1          1      )

 cart.    s( 8) = (  0.0000000 -1.0000000  0.0000000 )
                  (  0.0000000  0.0000000 -1.0000000 )
                  (  1.0000000  0.0000000  0.0000000 )


      isym =  9     120 deg rotation - cart. axis [1,1,1]        

 cryst.   s( 9) = (     0          0         -1      )
                  (     0          1         -1      )
                  (     1          0         -1      )

 cart.    s( 9) = (  0.0000000  0.0000000  1.0000000 )
                  (  1.0000000  0.0000000  0.0000000 )
                  (  0.0000000  1.0000000  0.0000000 )


      isym = 10     120 deg rotation - cart. axis [-1,1,-1]      

 cryst.   s(10) = (    -1          1          0      )
                  (    -1          0          0      )
                  (    -1          0          1      )

 cart.    s(10) = (  0.0000000  0.0000000  1.0000000 )
                  ( -1.0000000  0.0000000  0.0000000 )
                  (  0.0000000 -1.0000000  0.0000000 )


      isym = 11     120 deg rotation - cart. axis [1,-1,-1]      

 cryst.   s(11) = (     0          0          1      )
                  (     1          0          0      )
                  (     0          1          0      )

 cart.    s(11) = (  0.0000000  0.0000000 -1.0000000 )
                  ( -1.0000000  0.0000000  0.0000000 )
                  (  0.0000000  1.0000000  0.0000000 )


      isym = 12     120 deg rotation - cart. axis [-1,-1,1]      

 cryst.   s(12) = (     1         -1          0      )
                  (     0         -1          1      )
                  (     0         -1          0      )

 cart.    s(12) = (  0.0000000  0.0000000 -1.0000000 )
                  (  1.0000000  0.0000000  0.0000000 )
                  (  0.0000000 -1.0000000  0.0000000 )


      isym = 13     inv. 180 deg rotation - cart. axis [1,1,0]   

 cryst.   s(13) = (     0          1          0      )
                  (     1          0          0      )
                  (     0          0          1      )

 cart.    s(13) = (  0.0000000 -1.0000000  0.0000000 )
                  ( -1.0000000  0.0000000  0.0000000 )
                  (  0.0000000  0.0000000  1.0000000 )


      isym = 14     inv. 180 deg rotation - cart. axis [1,-1,0]  

 cryst.   s(14) = (     1          0         -1      )
                  (     0          1         -1      )
                  (     0          0         -1      )

 cart.    s(14) = (  0.0000000  1.0000000  0.0000000 )
                  (  1.0000000  0.0000000  0.0000000 )
                  (  0.0000000  0.0000000  1.0000000 )


      isym = 15     inv.  90 deg rotation - cart. axis [0,0,-1]  

 cryst.   s(15) = (     0         -1          0      )
                  (     0         -1          1      )
                  (     1         -1          0      )

 cart.    s(15) = (  0.0000000 -1.0000000  0.0000000 )
                  (  1.0000000  0.0000000  0.0000000 )
                  (  0.0000000  0.0000000 -1.0000000 )


      isym = 16     inv.  90 deg rotation - cart. axis [0,0,1]   

 cryst.   s(16) = (    -1          0          1      )
                  (    -1          0          0      )
                  (    -1          1          0      )

 cart.    s(16) = (  0.0000000  1.0000000  0.0000000 )
                  ( -1.0000000  0.0000000  0.0000000 )
                  (  0.0000000  0.0000000 -1.0000000 )


      isym = 17     inv. 180 deg rotation - cart. axis [1,0,1]   

 cryst.   s(17) = (     1          0          0      )
                  (     0          0          1      )
                  (     0          1          0      )

 cart.    s(17) = (  0.0000000  0.0000000 -1.0000000 )
                  (  0.0000000  1.0000000  0.0000000 )
                  ( -1.0000000  0.0000000  0.0000000 )


      isym = 18     inv. 180 deg rotation - cart. axis [-1,0,1]  

 cryst.   s(18) = (    -1          0          0      )
                  (    -1          1          0      )
                  (    -1          0          1      )

 cart.    s(18) = (  0.0000000  0.0000000  1.0000000 )
                  (  0.0000000  1.0000000  0.0000000 )
                  (  1.0000000  0.0000000  0.0000000 )


      isym = 19     inv.  90 deg rotation - cart. axis [0,1,0]   

 cryst.   s(19) = (     0         -1          1      )
                  (     1         -1          0      )
                  (     0         -1          0      )

 cart.    s(19) = (  0.0000000  0.0000000 -1.0000000 )
                  (  0.0000000 -1.0000000  0.0000000 )
                  (  1.0000000  0.0000000  0.0000000 )


      isym = 20     inv.  90 deg rotation - cart. axis [0,-1,0]  

 cryst.   s(20) = (     0          1         -1      )
                  (     0          0         -1      )
                  (     1          0         -1      )

 cart.    s(20) = (  0.0000000  0.0000000  1.0000000 )
                  (  0.0000000 -1.0000000  0.0000000 )
                  ( -1.0000000  0.0000000  0.0000000 )


      isym = 21     inv. 180 deg rotation - cart. axis [0,1,1]   

 cryst.   s(21) = (     1         -1          0      )
                  (     0         -1          0      )
                  (     0         -1          1      )

 cart.    s(21) = (  1.0000000  0.0000000  0.0000000 )
                  (  0.0000000  0.0000000 -1.0000000 )
                  (  0.0000000 -1.0000000  0.0000000 )


      isym = 22     inv. 180 deg rotation - cart. axis [0,1,-1]  

 cryst.   s(22) = (     0          0          1      )
                  (     0          1          0      )
                  (     1          0          0      )

 cart.    s(22) = (  1.0000000  0.0000000  0.0000000 )
                  (  0.0000000  0.0000000  1.0000000 )
                  (  0.0000000  1.0000000  0.0000000 )


      isym = 23     inv.  90 deg rotation - cart. axis [-1,0,0]  

 cryst.   s(23) = (     0          0         -1      )
                  (     1          0         -1      )
                  (     0          1         -1      )

 cart.    s(23) = ( -1.0000000  0.0000000  0.0000000 )
                  (  0.0000000  0.0000000 -1.0000000 )
                  (  0.0000000  1.0000000  0.0000000 )


      isym = 24     inv.  90 deg rotation - cart. axis [1,0,0]   

 cryst.   s(24) = (    -1          1          0      )
                  (    -1          0          1      )
                  (    -1          0          0      )

 cart.    s(24) = ( -1.0000000  0.0000000  0.0000000 )
                  (  0.0000000  0.0000000  1.0000000 )
                  (  0.0000000 -1.0000000  0.0000000 )


   Cartesian axes

     site n.     atom                  positions (alat units)
         1           As  tau(   1) = (   0.0000000   0.0000000   0.0000000  )
         2           B   tau(   2) = (  -0.2500000   0.2500000   0.2500000  )

   Crystallographic axes

     site n.     atom                  positions (cryst. coord.)
         1           As  tau(   1) = (  0.0000000  0.0000000  0.0000000  )
         2           B   tau(   2) = (  0.2500000  0.2500000  0.2500000  )

     number of k points=   413 (tetrahedron method)
                       cart. coord. in units 2pi/alat
        k(    1) = (   0.0000000   0.0000000   0.0000000), wk =   0.0001447
        k(    2) = (  -0.0416667   0.0416667  -0.0416667), wk =   0.0011574
        k(    3) = (  -0.0833333   0.0833333  -0.0833333), wk =   0.0011574
        k(    4) = (  -0.1250000   0.1250000  -0.1250000), wk =   0.0011574
        k(    5) = (  -0.1666667   0.1666667  -0.1666667), wk =   0.0011574
        k(    6) = (  -0.2083333   0.2083333  -0.2083333), wk =   0.0011574
        k(    7) = (  -0.2500000   0.2500000  -0.2500000), wk =   0.0011574
        k(    8) = (  -0.2916667   0.2916667  -0.2916667), wk =   0.0011574
        k(    9) = (  -0.3333333   0.3333333  -0.3333333), wk =   0.0011574
        k(   10) = (  -0.3750000   0.3750000  -0.3750000), wk =   0.0011574
        k(   11) = (  -0.4166667   0.4166667  -0.4166667), wk =   0.0011574
        k(   12) = (  -0.4583333   0.4583333  -0.4583333), wk =   0.0011574
        k(   13) = (   0.5000000  -0.5000000   0.5000000), wk =   0.0005787
        k(   14) = (   0.0000000   0.0833333   0.0000000), wk =   0.0008681
        k(   15) = (  -0.0416667   0.1250000  -0.0416667), wk =   0.0034722
        k(   16) = (  -0.0833333   0.1666667  -0.0833333), wk =   0.0034722
        k(   17) = (  -0.1250000   0.2083333  -0.1250000), wk =   0.0034722
        k(   18) = (  -0.1666667   0.2500000  -0.1666667), wk =   0.0034722
        k(   19) = (  -0.2083333   0.2916667  -0.2083333), wk =   0.0034722
        k(   20) = (  -0.2500000   0.3333333  -0.2500000), wk =   0.0034722
        k(   21) = (  -0.2916667   0.3750000  -0.2916667), wk =   0.0034722
        k(   22) = (  -0.3333333   0.4166667  -0.3333333), wk =   0.0034722
        k(   23) = (  -0.3750000   0.4583333  -0.3750000), wk =   0.0034722
        k(   24) = (  -0.4166667   0.5000000  -0.4166667), wk =   0.0034722
        k(   25) = (   0.5416667  -0.4583333   0.5416667), wk =   0.0034722
        k(   26) = (   0.5000000  -0.4166667   0.5000000), wk =   0.0034722
        k(   27) = (   0.4583333  -0.3750000   0.4583333), wk =   0.0034722
        k(   28) = (   0.4166667  -0.3333333   0.4166667), wk =   0.0034722
        k(   29) = (   0.3750000  -0.2916667   0.3750000), wk =   0.0034722
        k(   30) = (   0.3333333  -0.2500000   0.3333333), wk =   0.0034722
        k(   31) = (   0.2916667  -0.2083333   0.2916667), wk =   0.0034722
        k(   32) = (   0.2500000  -0.1666667   0.2500000), wk =   0.0034722
        k(   33) = (   0.2083333  -0.1250000   0.2083333), wk =   0.0034722
        k(   34) = (   0.1666667  -0.0833333   0.1666667), wk =   0.0034722
        k(   35) = (   0.1250000  -0.0416667   0.1250000), wk =   0.0034722
        k(   36) = (   0.0833333   0.0000000   0.0833333), wk =   0.0017361
        k(   37) = (   0.0000000   0.1666667   0.0000000), wk =   0.0008681
        k(   38) = (  -0.0416667   0.2083333  -0.0416667), wk =   0.0034722
        k(   39) = (  -0.0833333   0.2500000  -0.0833333), wk =   0.0034722
        k(   40) = (  -0.1250000   0.2916667  -0.1250000), wk =   0.0034722
        k(   41) = (  -0.1666667   0.3333333  -0.1666667), wk =   0.0034722
        k(   42) = (  -0.2083333   0.3750000  -0.2083333), wk =   0.0034722
        k(   43) = (  -0.2500000   0.4166667  -0.2500000), wk =   0.0034722
        k(   44) = (  -0.2916667   0.4583333  -0.2916667), wk =   0.0034722
        k(   45) = (  -0.3333333   0.5000000  -0.3333333), wk =   0.0034722
        k(   46) = (  -0.3750000   0.5416667  -0.3750000), wk =   0.0034722
        k(   47) = (   0.5833333  -0.4166667   0.5833333), wk =   0.0034722
        k(   48) = (   0.5416667  -0.3750000   0.5416667), wk =   0.0034722
        k(   49) = (   0.5000000  -0.3333333   0.5000000), wk =   0.0034722
        k(   50) = (   0.4583333  -0.2916667   0.4583333), wk =   0.0034722
        k(   51) = (   0.4166667  -0.2500000   0.4166667), wk =   0.0034722
        k(   52) = (   0.3750000  -0.2083333   0.3750000), wk =   0.0034722
        k(   53) = (   0.3333333  -0.1666667   0.3333333), wk =   0.0034722
        k(   54) = (   0.2916667  -0.1250000   0.2916667), wk =   0.0034722
        k(   55) = (   0.2500000  -0.0833333   0.2500000), wk =   0.0034722
        k(   56) = (   0.2083333  -0.0416667   0.2083333), wk =   0.0034722
        k(   57) = (   0.1666667  -0.0000000   0.1666667), wk =   0.0017361
        k(   58) = (   0.0000000   0.2500000   0.0000000), wk =   0.0008681
        k(   59) = (  -0.0416667   0.2916667  -0.0416667), wk =   0.0034722
        k(   60) = (  -0.0833333   0.3333333  -0.0833333), wk =   0.0034722
        k(   61) = (  -0.1250000   0.3750000  -0.1250000), wk =   0.0034722
        k(   62) = (  -0.1666667   0.4166667  -0.1666667), wk =   0.0034722
        k(   63) = (  -0.2083333   0.4583333  -0.2083333), wk =   0.0034722
        k(   64) = (  -0.2500000   0.5000000  -0.2500000), wk =   0.0034722
        k(   65) = (  -0.2916667   0.5416667  -0.2916667), wk =   0.0034722
        k(   66) = (  -0.3333333   0.5833333  -0.3333333), wk =   0.0034722
        k(   67) = (   0.6250000  -0.3750000   0.6250000), wk =   0.0034722
        k(   68) = (   0.5833333  -0.3333333   0.5833333), wk =   0.0034722
        k(   69) = (   0.5416667  -0.2916667   0.5416667), wk =   0.0034722
        k(   70) = (   0.5000000  -0.2500000   0.5000000), wk =   0.0034722
        k(   71) = (   0.4583333  -0.2083333   0.4583333), wk =   0.0034722
        k(   72) = (   0.4166667  -0.1666667   0.4166667), wk =   0.0034722
        k(   73) = (   0.3750000  -0.1250000   0.3750000), wk =   0.0034722
        k(   74) = (   0.3333333  -0.0833333   0.3333333), wk =   0.0034722
        k(   75) = (   0.2916667  -0.0416667   0.2916667), wk =   0.0034722
        k(   76) = (   0.2500000   0.0000000   0.2500000), wk =   0.0017361
        k(   77) = (   0.0000000   0.3333333   0.0000000), wk =   0.0008681
        k(   78) = (  -0.0416667   0.3750000  -0.0416667), wk =   0.0034722
        k(   79) = (  -0.0833333   0.4166667  -0.0833333), wk =   0.0034722
        k(   80) = (  -0.1250000   0.4583333  -0.1250000), wk =   0.0034722
        k(   81) = (  -0.1666667   0.5000000  -0.1666667), wk =   0.0034722
        k(   82) = (  -0.2083333   0.5416667  -0.2083333), wk =   0.0034722
        k(   83) = (  -0.2500000   0.5833333  -0.2500000), wk =   0.0034722
        k(   84) = (  -0.2916667   0.6250000  -0.2916667), wk =   0.0034722
        k(   85) = (   0.6666667  -0.3333333   0.6666667), wk =   0.0034722
        k(   86) = (   0.6250000  -0.2916667   0.6250000), wk =   0.0034722
        k(   87) = (   0.5833333  -0.2500000   0.5833333), wk =   0.0034722
        k(   88) = (   0.5416667  -0.2083333   0.5416667), wk =   0.0034722
        k(   89) = (   0.5000000  -0.1666667   0.5000000), wk =   0.0034722
        k(   90) = (   0.4583333  -0.1250000   0.4583333), wk =   0.0034722
        k(   91) = (   0.4166667  -0.0833333   0.4166667), wk =   0.0034722
        k(   92) = (   0.3750000  -0.0416667   0.3750000), wk =   0.0034722
        k(   93) = (   0.3333333   0.0000000   0.3333333), wk =   0.0017361
        k(   94) = (   0.0000000   0.4166667   0.0000000), wk =   0.0008681
        k(   95) = (  -0.0416667   0.4583333  -0.0416667), wk =   0.0034722
        k(   96) = (  -0.0833333   0.5000000  -0.0833333), wk =   0.0034722
        k(   97) = (  -0.1250000   0.5416667  -0.1250000), wk =   0.0034722
        k(   98) = (  -0.1666667   0.5833333  -0.1666667), wk =   0.0034722
        k(   99) = (  -0.2083333   0.6250000  -0.2083333), wk =   0.0034722
        k(  100) = (  -0.2500000   0.6666667  -0.2500000), wk =   0.0034722
        k(  101) = (   0.7083333  -0.2916667   0.7083333), wk =   0.0034722
        k(  102) = (   0.6666667  -0.2500000   0.6666667), wk =   0.0034722
        k(  103) = (   0.6250000  -0.2083333   0.6250000), wk =   0.0034722
        k(  104) = (   0.5833333  -0.1666667   0.5833333), wk =   0.0034722
        k(  105) = (   0.5416667  -0.1250000   0.5416667), wk =   0.0034722
        k(  106) = (   0.5000000  -0.0833333   0.5000000), wk =   0.0034722
        k(  107) = (   0.4583333  -0.0416667   0.4583333), wk =   0.0034722
        k(  108) = (   0.4166667   0.0000000   0.4166667), wk =   0.0017361
        k(  109) = (   0.0000000   0.5000000   0.0000000), wk =   0.0008681
        k(  110) = (  -0.0416667   0.5416667  -0.0416667), wk =   0.0034722
        k(  111) = (  -0.0833333   0.5833333  -0.0833333), wk =   0.0034722
        k(  112) = (  -0.1250000   0.6250000  -0.1250000), wk =   0.0034722
        k(  113) = (  -0.1666667   0.6666667  -0.1666667), wk =   0.0034722
        k(  114) = (  -0.2083333   0.7083333  -0.2083333), wk =   0.0034722
        k(  115) = (   0.7500000  -0.2500000   0.7500000), wk =   0.0034722
        k(  116) = (   0.7083333  -0.2083333   0.7083333), wk =   0.0034722
        k(  117) = (   0.6666667  -0.1666667   0.6666667), wk =   0.0034722
        k(  118) = (   0.6250000  -0.1250000   0.6250000), wk =   0.0034722
        k(  119) = (   0.5833333  -0.0833333   0.5833333), wk =   0.0034722
        k(  120) = (   0.5416667  -0.0416667   0.5416667), wk =   0.0034722
        k(  121) = (   0.5000000   0.0000000   0.5000000), wk =   0.0017361
        k(  122) = (   0.0000000   0.5833333   0.0000000), wk =   0.0008681
        k(  123) = (  -0.0416667   0.6250000  -0.0416667), wk =   0.0034722
        k(  124) = (  -0.0833333   0.6666667  -0.0833333), wk =   0.0034722
        k(  125) = (  -0.1250000   0.7083333  -0.1250000), wk =   0.0034722
        k(  126) = (  -0.1666667   0.7500000  -0.1666667), wk =   0.0034722
        k(  127) = (   0.7916667  -0.2083333   0.7916667), wk =   0.0034722
        k(  128) = (   0.7500000  -0.1666667   0.7500000), wk =   0.0034722
        k(  129) = (   0.7083333  -0.1250000   0.7083333), wk =   0.0034722
        k(  130) = (   0.6666667  -0.0833333   0.6666667), wk =   0.0034722
        k(  131) = (   0.6250000  -0.0416667   0.6250000), wk =   0.0034722
        k(  132) = (   0.5833333   0.0000000   0.5833333), wk =   0.0017361
        k(  133) = (   0.0000000   0.6666667   0.0000000), wk =   0.0008681
        k(  134) = (  -0.0416667   0.7083333  -0.0416667), wk =   0.0034722
        k(  135) = (  -0.0833333   0.7500000  -0.0833333), wk =   0.0034722
        k(  136) = (  -0.1250000   0.7916667  -0.1250000), wk =   0.0034722
        k(  137) = (   0.8333333  -0.1666667   0.8333333), wk =   0.0034722
        k(  138) = (   0.7916667  -0.1250000   0.7916667), wk =   0.0034722
        k(  139) = (   0.7500000  -0.0833333   0.7500000), wk =   0.0034722
        k(  140) = (   0.7083333  -0.0416667   0.7083333), wk =   0.0034722
        k(  141) = (   0.6666667   0.0000000   0.6666667), wk =   0.0017361
        k(  142) = (   0.0000000   0.7500000   0.0000000), wk =   0.0008681
        k(  143) = (  -0.0416667   0.7916667  -0.0416667), wk =   0.0034722
        k(  144) = (  -0.0833333   0.8333333  -0.0833333), wk =   0.0034722
        k(  145) = (   0.8750000  -0.1250000   0.8750000), wk =   0.0034722
        k(  146) = (   0.8333333  -0.0833333   0.8333333), wk =   0.0034722
        k(  147) = (   0.7916667  -0.0416667   0.7916667), wk =   0.0034722
        k(  148) = (   0.7500000   0.0000000   0.7500000), wk =   0.0017361
        k(  149) = (   0.0000000   0.8333333   0.0000000), wk =   0.0008681
        k(  150) = (  -0.0416667   0.8750000  -0.0416667), wk =   0.0034722
        k(  151) = (   0.9166667  -0.0833333   0.9166667), wk =   0.0034722
        k(  152) = (   0.8750000  -0.0416667   0.8750000), wk =   0.0034722
        k(  153) = (   0.8333333   0.0000000   0.8333333), wk =   0.0017361
        k(  154) = (   0.0000000   0.9166667   0.0000000), wk =   0.0008681
        k(  155) = (   0.9583333  -0.0416667   0.9583333), wk =   0.0034722
        k(  156) = (   0.9166667   0.0000000   0.9166667), wk =   0.0017361
        k(  157) = (   0.0000000  -1.0000000   0.0000000), wk =   0.0004340
        k(  158) = (  -0.0833333   0.1666667   0.0000000), wk =   0.0034722
        k(  159) = (  -0.1250000   0.2083333  -0.0416667), wk =   0.0069444
        k(  160) = (  -0.1666667   0.2500000  -0.0833333), wk =   0.0069444
        k(  161) = (  -0.2083333   0.2916667  -0.1250000), wk =   0.0069444
        k(  162) = (  -0.2500000   0.3333333  -0.1666667), wk =   0.0069444
        k(  163) = (  -0.2916667   0.3750000  -0.2083333), wk =   0.0069444
        k(  164) = (  -0.3333333   0.4166667  -0.2500000), wk =   0.0069444
        k(  165) = (  -0.3750000   0.4583333  -0.2916667), wk =   0.0069444
        k(  166) = (  -0.4166667   0.5000000  -0.3333333), wk =   0.0069444
        k(  167) = (   0.5416667  -0.4583333   0.6250000), wk =   0.0069444
        k(  168) = (   0.5000000  -0.4166667   0.5833333), wk =   0.0034722
        k(  169) = (  -0.0833333   0.2500000   0.0000000), wk =   0.0034722
        k(  170) = (  -0.1250000   0.2916667  -0.0416667), wk =   0.0069444
        k(  171) = (  -0.1666667   0.3333333  -0.0833333), wk =   0.0069444
        k(  172) = (  -0.2083333   0.3750000  -0.1250000), wk =   0.0069444
        k(  173) = (  -0.2500000   0.4166667  -0.1666667), wk =   0.0069444
        k(  174) = (  -0.2916667   0.4583333  -0.2083333), wk =   0.0069444
        k(  175) = (  -0.3333333   0.5000000  -0.2500000), wk =   0.0069444
        k(  176) = (  -0.3750000   0.5416667  -0.2916667), wk =   0.0069444
        k(  177) = (   0.5833333  -0.4166667   0.6666667), wk =   0.0069444
        k(  178) = (   0.5416667  -0.3750000   0.6250000), wk =   0.0069444
        k(  179) = (   0.5000000  -0.3333333   0.5833333), wk =   0.0069444
        k(  180) = (   0.4583333  -0.2916667   0.5416667), wk =   0.0069444
        k(  181) = (   0.4166667  -0.2500000   0.5000000), wk =   0.0069444
        k(  182) = (   0.3750000  -0.2083333   0.4583333), wk =   0.0069444
        k(  183) = (   0.3333333  -0.1666667   0.4166667), wk =   0.0069444
        k(  184) = (   0.2916667  -0.1250000   0.3750000), wk =   0.0069444
        k(  185) = (   0.2500000  -0.0833333   0.3333333), wk =   0.0069444
        k(  186) = (   0.2083333  -0.0416667   0.2916667), wk =   0.0069444
        k(  187) = (   0.1666667  -0.0000000   0.2500000), wk =   0.0034722
        k(  188) = (  -0.0833333   0.3333333  -0.0000000), wk =   0.0034722
        k(  189) = (  -0.1250000   0.3750000  -0.0416667), wk =   0.0069444
        k(  190) = (  -0.1666667   0.4166667  -0.0833333), wk =   0.0069444
        k(  191) = (  -0.2083333   0.4583333  -0.1250000), wk =   0.0069444
        k(  192) = (  -0.2500000   0.5000000  -0.1666667), wk =   0.0069444
        k(  193) = (  -0.2916667   0.5416667  -0.2083333), wk =   0.0069444
        k(  194) = (  -0.3333333   0.5833333  -0.2500000), wk =   0.0069444
        k(  195) = (   0.6250000  -0.3750000   0.7083333), wk =   0.0069444
        k(  196) = (   0.5833333  -0.3333333   0.6666667), wk =   0.0069444
        k(  197) = (   0.5416667  -0.2916667   0.6250000), wk =   0.0069444
        k(  198) = (   0.5000000  -0.2500000   0.5833333), wk =   0.0069444
        k(  199) = (   0.4583333  -0.2083333   0.5416667), wk =   0.0069444
        k(  200) = (   0.4166667  -0.1666667   0.5000000), wk =   0.0069444
        k(  201) = (   0.3750000  -0.1250000   0.4583333), wk =   0.0069444
        k(  202) = (   0.3333333  -0.0833333   0.4166667), wk =   0.0069444
        k(  203) = (   0.2916667  -0.0416667   0.3750000), wk =   0.0069444
        k(  204) = (   0.2500000   0.0000000   0.3333333), wk =   0.0034722
        k(  205) = (  -0.0833333   0.4166667   0.0000000), wk =   0.0034722
        k(  206) = (  -0.1250000   0.4583333  -0.0416667), wk =   0.0069444
        k(  207) = (  -0.1666667   0.5000000  -0.0833333), wk =   0.0069444
        k(  208) = (  -0.2083333   0.5416667  -0.1250000), wk =   0.0069444
        k(  209) = (  -0.2500000   0.5833333  -0.1666667), wk =   0.0069444
        k(  210) = (  -0.2916667   0.6250000  -0.2083333), wk =   0.0069444
        k(  211) = (   0.6666667  -0.3333333   0.7500000), wk =   0.0069444
        k(  212) = (   0.6250000  -0.2916667   0.7083333), wk =   0.0069444
        k(  213) = (   0.5833333  -0.2500000   0.6666667), wk =   0.0069444
        k(  214) = (   0.5416667  -0.2083333   0.6250000), wk =   0.0069444
        k(  215) = (   0.5000000  -0.1666667   0.5833333), wk =   0.0069444
        k(  216) = (   0.4583333  -0.1250000   0.5416667), wk =   0.0069444
        k(  217) = (   0.4166667  -0.0833333   0.5000000), wk =   0.0069444
        k(  218) = (   0.3750000  -0.0416667   0.4583333), wk =   0.0069444
        k(  219) = (   0.3333333   0.0000000   0.4166667), wk =   0.0034722
        k(  220) = (  -0.0833333   0.5000000   0.0000000), wk =   0.0034722
        k(  221) = (  -0.1250000   0.5416667  -0.0416667), wk =   0.0069444
        k(  222) = (  -0.1666667   0.5833333  -0.0833333), wk =   0.0069444
        k(  223) = (  -0.2083333   0.6250000  -0.1250000), wk =   0.0069444
        k(  224) = (  -0.2500000   0.6666667  -0.1666667), wk =   0.0069444
        k(  225) = (   0.7083333  -0.2916667   0.7916667), wk =   0.0069444
        k(  226) = (   0.6666667  -0.2500000   0.7500000), wk =   0.0069444
        k(  227) = (   0.6250000  -0.2083333   0.7083333), wk =   0.0069444
        k(  228) = (   0.5833333  -0.1666667   0.6666667), wk =   0.0069444
        k(  229) = (   0.5416667  -0.1250000   0.6250000), wk =   0.0069444
        k(  230) = (   0.5000000  -0.0833333   0.5833333), wk =   0.0069444
        k(  231) = (   0.4583333  -0.0416667   0.5416667), wk =   0.0069444
        k(  232) = (   0.4166667   0.0000000   0.5000000), wk =   0.0034722
        k(  233) = (  -0.0833333   0.5833333   0.0000000), wk =   0.0034722
        k(  234) = (  -0.1250000   0.6250000  -0.0416667), wk =   0.0069444
        k(  235) = (  -0.1666667   0.6666667  -0.0833333), wk =   0.0069444
        k(  236) = (  -0.2083333   0.7083333  -0.1250000), wk =   0.0069444
        k(  237) = (   0.7500000  -0.2500000   0.8333333), wk =   0.0069444
        k(  238) = (   0.7083333  -0.2083333   0.7916667), wk =   0.0069444
        k(  239) = (   0.6666667  -0.1666667   0.7500000), wk =   0.0069444
        k(  240) = (   0.6250000  -0.1250000   0.7083333), wk =   0.0069444
        k(  241) = (   0.5833333  -0.0833333   0.6666667), wk =   0.0069444
        k(  242) = (   0.5416667  -0.0416667   0.6250000), wk =   0.0069444
        k(  243) = (   0.5000000   0.0000000   0.5833333), wk =   0.0034722
        k(  244) = (  -0.0833333   0.6666667   0.0000000), wk =   0.0034722
        k(  245) = (  -0.1250000   0.7083333  -0.0416667), wk =   0.0069444
        k(  246) = (  -0.1666667   0.7500000  -0.0833333), wk =   0.0069444
        k(  247) = (   0.7916667  -0.2083333   0.8750000), wk =   0.0069444
        k(  248) = (   0.7500000  -0.1666667   0.8333333), wk =   0.0069444
        k(  249) = (   0.7083333  -0.1250000   0.7916667), wk =   0.0069444
        k(  250) = (   0.6666667  -0.0833333   0.7500000), wk =   0.0069444
        k(  251) = (   0.6250000  -0.0416667   0.7083333), wk =   0.0069444
        k(  252) = (   0.5833333   0.0000000   0.6666667), wk =   0.0034722
        k(  253) = (  -0.0833333   0.7500000   0.0000000), wk =   0.0034722
        k(  254) = (  -0.1250000   0.7916667  -0.0416667), wk =   0.0069444
        k(  255) = (   0.8333333  -0.1666667   0.9166667), wk =   0.0069444
        k(  256) = (   0.7916667  -0.1250000   0.8750000), wk =   0.0069444
        k(  257) = (   0.7500000  -0.0833333   0.8333333), wk =   0.0069444
        k(  258) = (   0.7083333  -0.0416667   0.7916667), wk =   0.0069444
        k(  259) = (   0.6666667   0.0000000   0.7500000), wk =   0.0034722
        k(  260) = (  -0.0833333   0.8333333   0.0000000), wk =   0.0034722
        k(  261) = (   0.8750000  -0.1250000   0.9583333), wk =   0.0069444
        k(  262) = (   0.8333333  -0.0833333   0.9166667), wk =   0.0069444
        k(  263) = (   0.7916667  -0.0416667   0.8750000), wk =   0.0069444
        k(  264) = (   0.7500000   0.0000000   0.8333333), wk =   0.0034722
        k(  265) = (   0.9166667  -0.0833333   1.0000000), wk =   0.0034722
        k(  266) = (   0.8750000  -0.0416667   0.9583333), wk =   0.0069444
        k(  267) = (   0.8333333   0.0000000   0.9166667), wk =   0.0034722
        k(  268) = (  -0.0833333  -1.0000000   0.0000000), wk =   0.0017361
        k(  269) = (  -0.1666667   0.3333333   0.0000000), wk =   0.0034722
        k(  270) = (  -0.2083333   0.3750000  -0.0416667), wk =   0.0069444
        k(  271) = (  -0.2500000   0.4166667  -0.0833333), wk =   0.0069444
        k(  272) = (  -0.2916667   0.4583333  -0.1250000), wk =   0.0069444
        k(  273) = (  -0.3333333   0.5000000  -0.1666667), wk =   0.0069444
        k(  274) = (  -0.3750000   0.5416667  -0.2083333), wk =   0.0069444
        k(  275) = (   0.5833333  -0.4166667   0.7500000), wk =   0.0069444
        k(  276) = (   0.5416667  -0.3750000   0.7083333), wk =   0.0069444
        k(  277) = (   0.5000000  -0.3333333   0.6666667), wk =   0.0034722
        k(  278) = (  -0.1666667   0.4166667   0.0000000), wk =   0.0034722
        k(  279) = (  -0.2083333   0.4583333  -0.0416667), wk =   0.0069444
        k(  280) = (  -0.2500000   0.5000000  -0.0833333), wk =   0.0069444
        k(  281) = (  -0.2916667   0.5416667  -0.1250000), wk =   0.0069444
        k(  282) = (  -0.3333333   0.5833333  -0.1666667), wk =   0.0069444
        k(  283) = (   0.6250000  -0.3750000   0.7916667), wk =   0.0069444
        k(  284) = (   0.5833333  -0.3333333   0.7500000), wk =   0.0069444
        k(  285) = (   0.5416667  -0.2916667   0.7083333), wk =   0.0069444
        k(  286) = (   0.5000000  -0.2500000   0.6666667), wk =   0.0069444
        k(  287) = (   0.4583333  -0.2083333   0.6250000), wk =   0.0069444
        k(  288) = (   0.4166667  -0.1666667   0.5833333), wk =   0.0069444
        k(  289) = (   0.3750000  -0.1250000   0.5416667), wk =   0.0069444
        k(  290) = (   0.3333333  -0.0833333   0.5000000), wk =   0.0069444
        k(  291) = (   0.2916667  -0.0416667   0.4583333), wk =   0.0069444
        k(  292) = (   0.2500000   0.0000000   0.4166667), wk =   0.0034722
        k(  293) = (  -0.1666667   0.5000000   0.0000000), wk =   0.0034722
        k(  294) = (  -0.2083333   0.5416667  -0.0416667), wk =   0.0069444
        k(  295) = (  -0.2500000   0.5833333  -0.0833333), wk =   0.0069444
        k(  296) = (  -0.2916667   0.6250000  -0.1250000), wk =   0.0069444
        k(  297) = (   0.6666667  -0.3333333   0.8333333), wk =   0.0069444
        k(  298) = (   0.6250000  -0.2916667   0.7916667), wk =   0.0069444
        k(  299) = (   0.5833333  -0.2500000   0.7500000), wk =   0.0069444
        k(  300) = (   0.5416667  -0.2083333   0.7083333), wk =   0.0069444
        k(  301) = (   0.5000000  -0.1666667   0.6666667), wk =   0.0069444
        k(  302) = (   0.4583333  -0.1250000   0.6250000), wk =   0.0069444
        k(  303) = (   0.4166667  -0.0833333   0.5833333), wk =   0.0069444
        k(  304) = (   0.3750000  -0.0416667   0.5416667), wk =   0.0069444
        k(  305) = (   0.3333333   0.0000000   0.5000000), wk =   0.0034722
        k(  306) = (  -0.1666667   0.5833333   0.0000000), wk =   0.0034722
        k(  307) = (  -0.2083333   0.6250000  -0.0416667), wk =   0.0069444
        k(  308) = (  -0.2500000   0.6666667  -0.0833333), wk =   0.0069444
        k(  309) = (   0.7083333  -0.2916667   0.8750000), wk =   0.0069444
        k(  310) = (   0.6666667  -0.2500000   0.8333333), wk =   0.0069444
        k(  311) = (   0.6250000  -0.2083333   0.7916667), wk =   0.0069444
        k(  312) = (   0.5833333  -0.1666667   0.7500000), wk =   0.0069444
        k(  313) = (   0.5416667  -0.1250000   0.7083333), wk =   0.0069444
        k(  314) = (   0.5000000  -0.0833333   0.6666667), wk =   0.0069444
        k(  315) = (   0.4583333  -0.0416667   0.6250000), wk =   0.0069444
        k(  316) = (   0.4166667   0.0000000   0.5833333), wk =   0.0034722
        k(  317) = (  -0.1666667   0.6666667  -0.0000000), wk =   0.0034722
        k(  318) = (  -0.2083333   0.7083333  -0.0416667), wk =   0.0069444
        k(  319) = (   0.7500000  -0.2500000   0.9166667), wk =   0.0069444
        k(  320) = (   0.7083333  -0.2083333   0.8750000), wk =   0.0069444
        k(  321) = (   0.6666667  -0.1666667   0.8333333), wk =   0.0069444
        k(  322) = (   0.6250000  -0.1250000   0.7916667), wk =   0.0069444
        k(  323) = (   0.5833333  -0.0833333   0.7500000), wk =   0.0069444
        k(  324) = (   0.5416667  -0.0416667   0.7083333), wk =   0.0069444
        k(  325) = (   0.5000000   0.0000000   0.6666667), wk =   0.0034722
        k(  326) = (  -0.1666667   0.7500000   0.0000000), wk =   0.0034722
        k(  327) = (   0.7916667  -0.2083333   0.9583333), wk =   0.0069444
        k(  328) = (   0.7500000  -0.1666667   0.9166667), wk =   0.0069444
        k(  329) = (   0.7083333  -0.1250000   0.8750000), wk =   0.0069444
        k(  330) = (   0.6666667  -0.0833333   0.8333333), wk =   0.0069444
        k(  331) = (   0.6250000  -0.0416667   0.7916667), wk =   0.0069444
        k(  332) = (   0.5833333   0.0000000   0.7500000), wk =   0.0034722
        k(  333) = (   0.8333333  -0.1666667   1.0000000), wk =   0.0034722
        k(  334) = (   0.7916667  -0.1250000   0.9583333), wk =   0.0069444
        k(  335) = (   0.7500000  -0.0833333   0.9166667), wk =   0.0069444
        k(  336) = (   0.7083333  -0.0416667   0.8750000), wk =   0.0069444
        k(  337) = (   0.6666667   0.0000000   0.8333333), wk =   0.0034722
        k(  338) = (   0.8333333  -0.0833333   1.0000000), wk =   0.0034722
        k(  339) = (   0.7916667  -0.0416667   0.9583333), wk =   0.0069444
        k(  340) = (   0.7500000   0.0000000   0.9166667), wk =   0.0034722
        k(  341) = (  -0.1666667  -1.0000000   0.0000000), wk =   0.0017361
        k(  342) = (  -0.2500000   0.5000000   0.0000000), wk =   0.0034722
        k(  343) = (  -0.2916667   0.5416667  -0.0416667), wk =   0.0069444
        k(  344) = (  -0.3333333   0.5833333  -0.0833333), wk =   0.0069444
        k(  345) = (   0.6250000  -0.3750000   0.8750000), wk =   0.0069444
        k(  346) = (   0.5833333  -0.3333333   0.8333333), wk =   0.0069444
        k(  347) = (   0.5416667  -0.2916667   0.7916667), wk =   0.0069444
        k(  348) = (   0.5000000  -0.2500000   0.7500000), wk =   0.0034722
        k(  349) = (  -0.2500000   0.5833333   0.0000000), wk =   0.0034722
        k(  350) = (  -0.2916667   0.6250000  -0.0416667), wk =   0.0069444
        k(  351) = (   0.6666667  -0.3333333   0.9166667), wk =   0.0069444
        k(  352) = (   0.6250000  -0.2916667   0.8750000), wk =   0.0069444
        k(  353) = (   0.5833333  -0.2500000   0.8333333), wk =   0.0069444
        k(  354) = (   0.5416667  -0.2083333   0.7916667), wk =   0.0069444
        k(  355) = (   0.5000000  -0.1666667   0.7500000), wk =   0.0069444
        k(  356) = (   0.4583333  -0.1250000   0.7083333), wk =   0.0069444
        k(  357) = (   0.4166667  -0.0833333   0.6666667), wk =   0.0069444
        k(  358) = (   0.3750000  -0.0416667   0.6250000), wk =   0.0069444
        k(  359) = (   0.3333333   0.0000000   0.5833333), wk =   0.0034722
        k(  360) = (  -0.2500000   0.6666667   0.0000000), wk =   0.0034722
        k(  361) = (   0.7083333  -0.2916667   0.9583333), wk =   0.0069444
        k(  362) = (   0.6666667  -0.2500000   0.9166667), wk =   0.0069444
        k(  363) = (   0.6250000  -0.2083333   0.8750000), wk =   0.0069444
        k(  364) = (   0.5833333  -0.1666667   0.8333333), wk =   0.0069444
        k(  365) = (   0.5416667  -0.1250000   0.7916667), wk =   0.0069444
        k(  366) = (   0.5000000  -0.0833333   0.7500000), wk =   0.0069444
        k(  367) = (   0.4583333  -0.0416667   0.7083333), wk =   0.0069444
        k(  368) = (   0.4166667  -0.0000000   0.6666667), wk =   0.0034722
        k(  369) = (   0.7500000  -0.2500000   1.0000000), wk =   0.0034722
        k(  370) = (   0.7083333  -0.2083333   0.9583333), wk =   0.0069444
        k(  371) = (   0.6666667  -0.1666667   0.9166667), wk =   0.0069444
        k(  372) = (   0.6250000  -0.1250000   0.8750000), wk =   0.0069444
        k(  373) = (   0.5833333  -0.0833333   0.8333333), wk =   0.0069444
        k(  374) = (   0.5416667  -0.0416667   0.7916667), wk =   0.0069444
        k(  375) = (   0.5000000   0.0000000   0.7500000), wk =   0.0034722
        k(  376) = (   0.7500000  -0.1666667   1.0000000), wk =   0.0034722
        k(  377) = (   0.7083333  -0.1250000   0.9583333), wk =   0.0069444
        k(  378) = (   0.6666667  -0.0833333   0.9166667), wk =   0.0069444
        k(  379) = (   0.6250000  -0.0416667   0.8750000), wk =   0.0069444
        k(  380) = (   0.5833333   0.0000000   0.8333333), wk =   0.0034722
        k(  381) = (   0.7500000  -0.0833333   1.0000000), wk =   0.0034722
        k(  382) = (   0.7083333  -0.0416667   0.9583333), wk =   0.0069444
        k(  383) = (   0.6666667  -0.0000000   0.9166667), wk =   0.0034722
        k(  384) = (  -0.2500000  -1.0000000   0.0000000), wk =   0.0017361
        k(  385) = (   0.6666667  -0.3333333   1.0000000), wk =   0.0034722
        k(  386) = (   0.6250000  -0.2916667   0.9583333), wk =   0.0069444
        k(  387) = (   0.5833333  -0.2500000   0.9166667), wk =   0.0069444
        k(  388) = (   0.5416667  -0.2083333   0.8750000), wk =   0.0069444
        k(  389) = (   0.5000000  -0.1666667   0.8333333), wk =   0.0034722
        k(  390) = (   0.6666667  -0.2500000   1.0000000), wk =   0.0034722
        k(  391) = (   0.6250000  -0.2083333   0.9583333), wk =   0.0069444
        k(  392) = (   0.5833333  -0.1666667   0.9166667), wk =   0.0069444
        k(  393) = (   0.5416667  -0.1250000   0.8750000), wk =   0.0069444
        k(  394) = (   0.5000000  -0.0833333   0.8333333), wk =   0.0069444
        k(  395) = (   0.4583333  -0.0416667   0.7916667), wk =   0.0069444
        k(  396) = (   0.4166667   0.0000000   0.7500000), wk =   0.0034722
        k(  397) = (   0.6666667  -0.1666667   1.0000000), wk =   0.0034722
        k(  398) = (   0.6250000  -0.1250000   0.9583333), wk =   0.0069444
        k(  399) = (   0.5833333  -0.0833333   0.9166667), wk =   0.0069444
        k(  400) = (   0.5416667  -0.0416667   0.8750000), wk =   0.0069444
        k(  401) = (   0.5000000   0.0000000   0.8333333), wk =   0.0034722
        k(  402) = (   0.6666667  -0.0833333   1.0000000), wk =   0.0034722
        k(  403) = (   0.6250000  -0.0416667   0.9583333), wk =   0.0069444
        k(  404) = (   0.5833333   0.0000000   0.9166667), wk =   0.0034722
        k(  405) = (  -0.3333333  -1.0000000   0.0000000), wk =   0.0017361
        k(  406) = (   0.5833333  -0.1666667   1.0000000), wk =   0.0034722
        k(  407) = (   0.5416667  -0.1250000   0.9583333), wk =   0.0069444
        k(  408) = (   0.5000000  -0.0833333   0.9166667), wk =   0.0034722
        k(  409) = (   0.5833333  -0.0833333   1.0000000), wk =   0.0034722
        k(  410) = (   0.5416667  -0.0416667   0.9583333), wk =   0.0069444
        k(  411) = (   0.5000000   0.0000000   0.9166667), wk =   0.0034722
        k(  412) = (  -0.4166667  -1.0000000   0.0000000), wk =   0.0017361
        k(  413) = (  -0.5000000  -1.0000000   0.0000000), wk =   0.0008681

                       cryst. coord.
        k(    1) = (   0.0000000   0.0000000   0.0000000), wk =   0.0001447
        k(    2) = (   0.0000000   0.0000000   0.0416667), wk =   0.0011574
        k(    3) = (   0.0000000   0.0000000   0.0833333), wk =   0.0011574
        k(    4) = (   0.0000000   0.0000000   0.1250000), wk =   0.0011574
        k(    5) = (   0.0000000   0.0000000   0.1666667), wk =   0.0011574
        k(    6) = (   0.0000000   0.0000000   0.2083333), wk =   0.0011574
        k(    7) = (   0.0000000   0.0000000   0.2500000), wk =   0.0011574
        k(    8) = (   0.0000000   0.0000000   0.2916667), wk =   0.0011574
        k(    9) = (   0.0000000   0.0000000   0.3333333), wk =   0.0011574
        k(   10) = (   0.0000000   0.0000000   0.3750000), wk =   0.0011574
        k(   11) = (   0.0000000   0.0000000   0.4166667), wk =   0.0011574
        k(   12) = (   0.0000000   0.0000000   0.4583333), wk =   0.0011574
        k(   13) = (   0.0000000   0.0000000  -0.5000000), wk =   0.0005787
        k(   14) = (   0.0000000   0.0416667   0.0416667), wk =   0.0008681
        k(   15) = (   0.0000000   0.0416667   0.0833333), wk =   0.0034722
        k(   16) = (   0.0000000   0.0416667   0.1250000), wk =   0.0034722
        k(   17) = (   0.0000000   0.0416667   0.1666667), wk =   0.0034722
        k(   18) = (   0.0000000   0.0416667   0.2083333), wk =   0.0034722
        k(   19) = (   0.0000000   0.0416667   0.2500000), wk =   0.0034722
        k(   20) = (   0.0000000   0.0416667   0.2916667), wk =   0.0034722
        k(   21) = (   0.0000000   0.0416667   0.3333333), wk =   0.0034722
        k(   22) = (   0.0000000   0.0416667   0.3750000), wk =   0.0034722
        k(   23) = (   0.0000000   0.0416667   0.4166667), wk =   0.0034722
        k(   24) = (   0.0000000   0.0416667   0.4583333), wk =   0.0034722
        k(   25) = (   0.0000000   0.0416667  -0.5000000), wk =   0.0034722
        k(   26) = (   0.0000000   0.0416667  -0.4583333), wk =   0.0034722
        k(   27) = (   0.0000000   0.0416667  -0.4166667), wk =   0.0034722
        k(   28) = (   0.0000000   0.0416667  -0.3750000), wk =   0.0034722
        k(   29) = (   0.0000000   0.0416667  -0.3333333), wk =   0.0034722
        k(   30) = (   0.0000000   0.0416667  -0.2916667), wk =   0.0034722
        k(   31) = (   0.0000000   0.0416667  -0.2500000), wk =   0.0034722
        k(   32) = (   0.0000000   0.0416667  -0.2083333), wk =   0.0034722
        k(   33) = (   0.0000000   0.0416667  -0.1666667), wk =   0.0034722
        k(   34) = (   0.0000000   0.0416667  -0.1250000), wk =   0.0034722
        k(   35) = (   0.0000000   0.0416667  -0.0833333), wk =   0.0034722
        k(   36) = (   0.0000000   0.0416667  -0.0416667), wk =   0.0017361
        k(   37) = (   0.0000000   0.0833333   0.0833333), wk =   0.0008681
        k(   38) = (   0.0000000   0.0833333   0.1250000), wk =   0.0034722
        k(   39) = (   0.0000000   0.0833333   0.1666667), wk =   0.0034722
        k(   40) = (   0.0000000   0.0833333   0.2083333), wk =   0.0034722
        k(   41) = (   0.0000000   0.0833333   0.2500000), wk =   0.0034722
        k(   42) = (   0.0000000   0.0833333   0.2916667), wk =   0.0034722
        k(   43) = (   0.0000000   0.0833333   0.3333333), wk =   0.0034722
        k(   44) = (   0.0000000   0.0833333   0.3750000), wk =   0.0034722
        k(   45) = (   0.0000000   0.0833333   0.4166667), wk =   0.0034722
        k(   46) = (   0.0000000   0.0833333   0.4583333), wk =   0.0034722
        k(   47) = (   0.0000000   0.0833333  -0.5000000), wk =   0.0034722
        k(   48) = (   0.0000000   0.0833333  -0.4583333), wk =   0.0034722
        k(   49) = (   0.0000000   0.0833333  -0.4166667), wk =   0.0034722
        k(   50) = (   0.0000000   0.0833333  -0.3750000), wk =   0.0034722
        k(   51) = (   0.0000000   0.0833333  -0.3333333), wk =   0.0034722
        k(   52) = (   0.0000000   0.0833333  -0.2916667), wk =   0.0034722
        k(   53) = (   0.0000000   0.0833333  -0.2500000), wk =   0.0034722
        k(   54) = (   0.0000000   0.0833333  -0.2083333), wk =   0.0034722
        k(   55) = (   0.0000000   0.0833333  -0.1666667), wk =   0.0034722
        k(   56) = (   0.0000000   0.0833333  -0.1250000), wk =   0.0034722
        k(   57) = (   0.0000000   0.0833333  -0.0833333), wk =   0.0017361
        k(   58) = (   0.0000000   0.1250000   0.1250000), wk =   0.0008681
        k(   59) = (   0.0000000   0.1250000   0.1666667), wk =   0.0034722
        k(   60) = (   0.0000000   0.1250000   0.2083333), wk =   0.0034722
        k(   61) = (   0.0000000   0.1250000   0.2500000), wk =   0.0034722
        k(   62) = (   0.0000000   0.1250000   0.2916667), wk =   0.0034722
        k(   63) = (   0.0000000   0.1250000   0.3333333), wk =   0.0034722
        k(   64) = (   0.0000000   0.1250000   0.3750000), wk =   0.0034722
        k(   65) = (   0.0000000   0.1250000   0.4166667), wk =   0.0034722
        k(   66) = (   0.0000000   0.1250000   0.4583333), wk =   0.0034722
        k(   67) = (   0.0000000   0.1250000  -0.5000000), wk =   0.0034722
        k(   68) = (   0.0000000   0.1250000  -0.4583333), wk =   0.0034722
        k(   69) = (   0.0000000   0.1250000  -0.4166667), wk =   0.0034722
        k(   70) = (   0.0000000   0.1250000  -0.3750000), wk =   0.0034722
        k(   71) = (   0.0000000   0.1250000  -0.3333333), wk =   0.0034722
        k(   72) = (   0.0000000   0.1250000  -0.2916667), wk =   0.0034722
        k(   73) = (   0.0000000   0.1250000  -0.2500000), wk =   0.0034722
        k(   74) = (   0.0000000   0.1250000  -0.2083333), wk =   0.0034722
        k(   75) = (   0.0000000   0.1250000  -0.1666667), wk =   0.0034722
        k(   76) = (   0.0000000   0.1250000  -0.1250000), wk =   0.0017361
        k(   77) = (   0.0000000   0.1666667   0.1666667), wk =   0.0008681
        k(   78) = (   0.0000000   0.1666667   0.2083333), wk =   0.0034722
        k(   79) = (   0.0000000   0.1666667   0.2500000), wk =   0.0034722
        k(   80) = (   0.0000000   0.1666667   0.2916667), wk =   0.0034722
        k(   81) = (   0.0000000   0.1666667   0.3333333), wk =   0.0034722
        k(   82) = (   0.0000000   0.1666667   0.3750000), wk =   0.0034722
        k(   83) = (   0.0000000   0.1666667   0.4166667), wk =   0.0034722
        k(   84) = (   0.0000000   0.1666667   0.4583333), wk =   0.0034722
        k(   85) = (   0.0000000   0.1666667  -0.5000000), wk =   0.0034722
        k(   86) = (   0.0000000   0.1666667  -0.4583333), wk =   0.0034722
        k(   87) = (   0.0000000   0.1666667  -0.4166667), wk =   0.0034722
        k(   88) = (   0.0000000   0.1666667  -0.3750000), wk =   0.0034722
        k(   89) = (   0.0000000   0.1666667  -0.3333333), wk =   0.0034722
        k(   90) = (   0.0000000   0.1666667  -0.2916667), wk =   0.0034722
        k(   91) = (   0.0000000   0.1666667  -0.2500000), wk =   0.0034722
        k(   92) = (   0.0000000   0.1666667  -0.2083333), wk =   0.0034722
        k(   93) = (   0.0000000   0.1666667  -0.1666667), wk =   0.0017361
        k(   94) = (   0.0000000   0.2083333   0.2083333), wk =   0.0008681
        k(   95) = (   0.0000000   0.2083333   0.2500000), wk =   0.0034722
        k(   96) = (   0.0000000   0.2083333   0.2916667), wk =   0.0034722
        k(   97) = (   0.0000000   0.2083333   0.3333333), wk =   0.0034722
        k(   98) = (   0.0000000   0.2083333   0.3750000), wk =   0.0034722
        k(   99) = (   0.0000000   0.2083333   0.4166667), wk =   0.0034722
        k(  100) = (   0.0000000   0.2083333   0.4583333), wk =   0.0034722
        k(  101) = (   0.0000000   0.2083333  -0.5000000), wk =   0.0034722
        k(  102) = (   0.0000000   0.2083333  -0.4583333), wk =   0.0034722
        k(  103) = (   0.0000000   0.2083333  -0.4166667), wk =   0.0034722
        k(  104) = (   0.0000000   0.2083333  -0.3750000), wk =   0.0034722
        k(  105) = (   0.0000000   0.2083333  -0.3333333), wk =   0.0034722
        k(  106) = (   0.0000000   0.2083333  -0.2916667), wk =   0.0034722
        k(  107) = (   0.0000000   0.2083333  -0.2500000), wk =   0.0034722
        k(  108) = (   0.0000000   0.2083333  -0.2083333), wk =   0.0017361
        k(  109) = (   0.0000000   0.2500000   0.2500000), wk =   0.0008681
        k(  110) = (   0.0000000   0.2500000   0.2916667), wk =   0.0034722
        k(  111) = (   0.0000000   0.2500000   0.3333333), wk =   0.0034722
        k(  112) = (   0.0000000   0.2500000   0.3750000), wk =   0.0034722
        k(  113) = (   0.0000000   0.2500000   0.4166667), wk =   0.0034722
        k(  114) = (   0.0000000   0.2500000   0.4583333), wk =   0.0034722
        k(  115) = (   0.0000000   0.2500000  -0.5000000), wk =   0.0034722
        k(  116) = (   0.0000000   0.2500000  -0.4583333), wk =   0.0034722
        k(  117) = (   0.0000000   0.2500000  -0.4166667), wk =   0.0034722
        k(  118) = (   0.0000000   0.2500000  -0.3750000), wk =   0.0034722
        k(  119) = (   0.0000000   0.2500000  -0.3333333), wk =   0.0034722
        k(  120) = (   0.0000000   0.2500000  -0.2916667), wk =   0.0034722
        k(  121) = (   0.0000000   0.2500000  -0.2500000), wk =   0.0017361
        k(  122) = (   0.0000000   0.2916667   0.2916667), wk =   0.0008681
        k(  123) = (   0.0000000   0.2916667   0.3333333), wk =   0.0034722
        k(  124) = (   0.0000000   0.2916667   0.3750000), wk =   0.0034722
        k(  125) = (   0.0000000   0.2916667   0.4166667), wk =   0.0034722
        k(  126) = (   0.0000000   0.2916667   0.4583333), wk =   0.0034722
        k(  127) = (   0.0000000   0.2916667  -0.5000000), wk =   0.0034722
        k(  128) = (   0.0000000   0.2916667  -0.4583333), wk =   0.0034722
        k(  129) = (   0.0000000   0.2916667  -0.4166667), wk =   0.0034722
        k(  130) = (   0.0000000   0.2916667  -0.3750000), wk =   0.0034722
        k(  131) = (   0.0000000   0.2916667  -0.3333333), wk =   0.0034722
        k(  132) = (   0.0000000   0.2916667  -0.2916667), wk =   0.0017361
        k(  133) = (   0.0000000   0.3333333   0.3333333), wk =   0.0008681
        k(  134) = (   0.0000000   0.3333333   0.3750000), wk =   0.0034722
        k(  135) = (   0.0000000   0.3333333   0.4166667), wk =   0.0034722
        k(  136) = (   0.0000000   0.3333333   0.4583333), wk =   0.0034722
        k(  137) = (   0.0000000   0.3333333  -0.5000000), wk =   0.0034722
        k(  138) = (   0.0000000   0.3333333  -0.4583333), wk =   0.0034722
        k(  139) = (   0.0000000   0.3333333  -0.4166667), wk =   0.0034722
        k(  140) = (   0.0000000   0.3333333  -0.3750000), wk =   0.0034722
        k(  141) = (   0.0000000   0.3333333  -0.3333333), wk =   0.0017361
        k(  142) = (   0.0000000   0.3750000   0.3750000), wk =   0.0008681
        k(  143) = (   0.0000000   0.3750000   0.4166667), wk =   0.0034722
        k(  144) = (   0.0000000   0.3750000   0.4583333), wk =   0.0034722
        k(  145) = (   0.0000000   0.3750000  -0.5000000), wk =   0.0034722
        k(  146) = (   0.0000000   0.3750000  -0.4583333), wk =   0.0034722
        k(  147) = (   0.0000000   0.3750000  -0.4166667), wk =   0.0034722
        k(  148) = (   0.0000000   0.3750000  -0.3750000), wk =   0.0017361
        k(  149) = (   0.0000000   0.4166667   0.4166667), wk =   0.0008681
        k(  150) = (   0.0000000   0.4166667   0.4583333), wk =   0.0034722
        k(  151) = (   0.0000000   0.4166667  -0.5000000), wk =   0.0034722
        k(  152) = (   0.0000000   0.4166667  -0.4583333), wk =   0.0034722
        k(  153) = (   0.0000000   0.4166667  -0.4166667), wk =   0.0017361
        k(  154) = (   0.0000000   0.4583333   0.4583333), wk =   0.0008681
        k(  155) = (   0.0000000   0.4583333  -0.5000000), wk =   0.0034722
        k(  156) = (   0.0000000   0.4583333  -0.4583333), wk =   0.0017361
        k(  157) = (   0.0000000  -0.5000000  -0.5000000), wk =   0.0004340
        k(  158) = (   0.0416667   0.0833333   0.1250000), wk =   0.0034722
        k(  159) = (   0.0416667   0.0833333   0.1666667), wk =   0.0069444
        k(  160) = (   0.0416667   0.0833333   0.2083333), wk =   0.0069444
        k(  161) = (   0.0416667   0.0833333   0.2500000), wk =   0.0069444
        k(  162) = (   0.0416667   0.0833333   0.2916667), wk =   0.0069444
        k(  163) = (   0.0416667   0.0833333   0.3333333), wk =   0.0069444
        k(  164) = (   0.0416667   0.0833333   0.3750000), wk =   0.0069444
        k(  165) = (   0.0416667   0.0833333   0.4166667), wk =   0.0069444
        k(  166) = (   0.0416667   0.0833333   0.4583333), wk =   0.0069444
        k(  167) = (   0.0416667   0.0833333  -0.5000000), wk =   0.0069444
        k(  168) = (   0.0416667   0.0833333  -0.4583333), wk =   0.0034722
        k(  169) = (   0.0416667   0.1250000   0.1666667), wk =   0.0034722
        k(  170) = (   0.0416667   0.1250000   0.2083333), wk =   0.0069444
        k(  171) = (   0.0416667   0.1250000   0.2500000), wk =   0.0069444
        k(  172) = (   0.0416667   0.1250000   0.2916667), wk =   0.0069444
        k(  173) = (   0.0416667   0.1250000   0.3333333), wk =   0.0069444
        k(  174) = (   0.0416667   0.1250000   0.3750000), wk =   0.0069444
        k(  175) = (   0.0416667   0.1250000   0.4166667), wk =   0.0069444
        k(  176) = (   0.0416667   0.1250000   0.4583333), wk =   0.0069444
        k(  177) = (   0.0416667   0.1250000  -0.5000000), wk =   0.0069444
        k(  178) = (   0.0416667   0.1250000  -0.4583333), wk =   0.0069444
        k(  179) = (   0.0416667   0.1250000  -0.4166667), wk =   0.0069444
        k(  180) = (   0.0416667   0.1250000  -0.3750000), wk =   0.0069444
        k(  181) = (   0.0416667   0.1250000  -0.3333333), wk =   0.0069444
        k(  182) = (   0.0416667   0.1250000  -0.2916667), wk =   0.0069444
        k(  183) = (   0.0416667   0.1250000  -0.2500000), wk =   0.0069444
        k(  184) = (   0.0416667   0.1250000  -0.2083333), wk =   0.0069444
        k(  185) = (   0.0416667   0.1250000  -0.1666667), wk =   0.0069444
        k(  186) = (   0.0416667   0.1250000  -0.1250000), wk =   0.0069444
        k(  187) = (   0.0416667   0.1250000  -0.0833333), wk =   0.0034722
        k(  188) = (   0.0416667   0.1666667   0.2083333), wk =   0.0034722
        k(  189) = (   0.0416667   0.1666667   0.2500000), wk =   0.0069444
        k(  190) = (   0.0416667   0.1666667   0.2916667), wk =   0.0069444
        k(  191) = (   0.0416667   0.1666667   0.3333333), wk =   0.0069444
        k(  192) = (   0.0416667   0.1666667   0.3750000), wk =   0.0069444
        k(  193) = (   0.0416667   0.1666667   0.4166667), wk =   0.0069444
        k(  194) = (   0.0416667   0.1666667   0.4583333), wk =   0.0069444
        k(  195) = (   0.0416667   0.1666667  -0.5000000), wk =   0.0069444
        k(  196) = (   0.0416667   0.1666667  -0.4583333), wk =   0.0069444
        k(  197) = (   0.0416667   0.1666667  -0.4166667), wk =   0.0069444
        k(  198) = (   0.0416667   0.1666667  -0.3750000), wk =   0.0069444
        k(  199) = (   0.0416667   0.1666667  -0.3333333), wk =   0.0069444
        k(  200) = (   0.0416667   0.1666667  -0.2916667), wk =   0.0069444
        k(  201) = (   0.0416667   0.1666667  -0.2500000), wk =   0.0069444
        k(  202) = (   0.0416667   0.1666667  -0.2083333), wk =   0.0069444
        k(  203) = (   0.0416667   0.1666667  -0.1666667), wk =   0.0069444
        k(  204) = (   0.0416667   0.1666667  -0.1250000), wk =   0.0034722
        k(  205) = (   0.0416667   0.2083333   0.2500000), wk =   0.0034722
        k(  206) = (   0.0416667   0.2083333   0.2916667), wk =   0.0069444
        k(  207) = (   0.0416667   0.2083333   0.3333333), wk =   0.0069444
        k(  208) = (   0.0416667   0.2083333   0.3750000), wk =   0.0069444
        k(  209) = (   0.0416667   0.2083333   0.4166667), wk =   0.0069444
        k(  210) = (   0.0416667   0.2083333   0.4583333), wk =   0.0069444
        k(  211) = (   0.0416667   0.2083333  -0.5000000), wk =   0.0069444
        k(  212) = (   0.0416667   0.2083333  -0.4583333), wk =   0.0069444
        k(  213) = (   0.0416667   0.2083333  -0.4166667), wk =   0.0069444
        k(  214) = (   0.0416667   0.2083333  -0.3750000), wk =   0.0069444
        k(  215) = (   0.0416667   0.2083333  -0.3333333), wk =   0.0069444
        k(  216) = (   0.0416667   0.2083333  -0.2916667), wk =   0.0069444
        k(  217) = (   0.0416667   0.2083333  -0.2500000), wk =   0.0069444
        k(  218) = (   0.0416667   0.2083333  -0.2083333), wk =   0.0069444
        k(  219) = (   0.0416667   0.2083333  -0.1666667), wk =   0.0034722
        k(  220) = (   0.0416667   0.2500000   0.2916667), wk =   0.0034722
        k(  221) = (   0.0416667   0.2500000   0.3333333), wk =   0.0069444
        k(  222) = (   0.0416667   0.2500000   0.3750000), wk =   0.0069444
        k(  223) = (   0.0416667   0.2500000   0.4166667), wk =   0.0069444
        k(  224) = (   0.0416667   0.2500000   0.4583333), wk =   0.0069444
        k(  225) = (   0.0416667   0.2500000  -0.5000000), wk =   0.0069444
        k(  226) = (   0.0416667   0.2500000  -0.4583333), wk =   0.0069444
        k(  227) = (   0.0416667   0.2500000  -0.4166667), wk =   0.0069444
        k(  228) = (   0.0416667   0.2500000  -0.3750000), wk =   0.0069444
        k(  229) = (   0.0416667   0.2500000  -0.3333333), wk =   0.0069444
        k(  230) = (   0.0416667   0.2500000  -0.2916667), wk =   0.0069444
        k(  231) = (   0.0416667   0.2500000  -0.2500000), wk =   0.0069444
        k(  232) = (   0.0416667   0.2500000  -0.2083333), wk =   0.0034722
        k(  233) = (   0.0416667   0.2916667   0.3333333), wk =   0.0034722
        k(  234) = (   0.0416667   0.2916667   0.3750000), wk =   0.0069444
        k(  235) = (   0.0416667   0.2916667   0.4166667), wk =   0.0069444
        k(  236) = (   0.0416667   0.2916667   0.4583333), wk =   0.0069444
        k(  237) = (   0.0416667   0.2916667  -0.5000000), wk =   0.0069444
        k(  238) = (   0.0416667   0.2916667  -0.4583333), wk =   0.0069444
        k(  239) = (   0.0416667   0.2916667  -0.4166667), wk =   0.0069444
        k(  240) = (   0.0416667   0.2916667  -0.3750000), wk =   0.0069444
        k(  241) = (   0.0416667   0.2916667  -0.3333333), wk =   0.0069444
        k(  242) = (   0.0416667   0.2916667  -0.2916667), wk =   0.0069444
        k(  243) = (   0.0416667   0.2916667  -0.2500000), wk =   0.0034722
        k(  244) = (   0.0416667   0.3333333   0.3750000), wk =   0.0034722
        k(  245) = (   0.0416667   0.3333333   0.4166667), wk =   0.0069444
        k(  246) = (   0.0416667   0.3333333   0.4583333), wk =   0.0069444
        k(  247) = (   0.0416667   0.3333333  -0.5000000), wk =   0.0069444
        k(  248) = (   0.0416667   0.3333333  -0.4583333), wk =   0.0069444
        k(  249) = (   0.0416667   0.3333333  -0.4166667), wk =   0.0069444
        k(  250) = (   0.0416667   0.3333333  -0.3750000), wk =   0.0069444
        k(  251) = (   0.0416667   0.3333333  -0.3333333), wk =   0.0069444
        k(  252) = (   0.0416667   0.3333333  -0.2916667), wk =   0.0034722
        k(  253) = (   0.0416667   0.3750000   0.4166667), wk =   0.0034722
        k(  254) = (   0.0416667   0.3750000   0.4583333), wk =   0.0069444
        k(  255) = (   0.0416667   0.3750000  -0.5000000), wk =   0.0069444
        k(  256) = (   0.0416667   0.3750000  -0.4583333), wk =   0.0069444
        k(  257) = (   0.0416667   0.3750000  -0.4166667), wk =   0.0069444
        k(  258) = (   0.0416667   0.3750000  -0.3750000), wk =   0.0069444
        k(  259) = (   0.0416667   0.3750000  -0.3333333), wk =   0.0034722
        k(  260) = (   0.0416667   0.4166667   0.4583333), wk =   0.0034722
        k(  261) = (   0.0416667   0.4166667  -0.5000000), wk =   0.0069444
        k(  262) = (   0.0416667   0.4166667  -0.4583333), wk =   0.0069444
        k(  263) = (   0.0416667   0.4166667  -0.4166667), wk =   0.0069444
        k(  264) = (   0.0416667   0.4166667  -0.3750000), wk =   0.0034722
        k(  265) = (   0.0416667   0.4583333  -0.5000000), wk =   0.0034722
        k(  266) = (   0.0416667   0.4583333  -0.4583333), wk =   0.0069444
        k(  267) = (   0.0416667   0.4583333  -0.4166667), wk =   0.0034722
        k(  268) = (   0.0416667  -0.5000000  -0.4583333), wk =   0.0017361
        k(  269) = (   0.0833333   0.1666667   0.2500000), wk =   0.0034722
        k(  270) = (   0.0833333   0.1666667   0.2916667), wk =   0.0069444
        k(  271) = (   0.0833333   0.1666667   0.3333333), wk =   0.0069444
        k(  272) = (   0.0833333   0.1666667   0.3750000), wk =   0.0069444
        k(  273) = (   0.0833333   0.1666667   0.4166667), wk =   0.0069444
        k(  274) = (   0.0833333   0.1666667   0.4583333), wk =   0.0069444
        k(  275) = (   0.0833333   0.1666667  -0.5000000), wk =   0.0069444
        k(  276) = (   0.0833333   0.1666667  -0.4583333), wk =   0.0069444
        k(  277) = (   0.0833333   0.1666667  -0.4166667), wk =   0.0034722
        k(  278) = (   0.0833333   0.2083333   0.2916667), wk =   0.0034722
        k(  279) = (   0.0833333   0.2083333   0.3333333), wk =   0.0069444
        k(  280) = (   0.0833333   0.2083333   0.3750000), wk =   0.0069444
        k(  281) = (   0.0833333   0.2083333   0.4166667), wk =   0.0069444
        k(  282) = (   0.0833333   0.2083333   0.4583333), wk =   0.0069444
        k(  283) = (   0.0833333   0.2083333  -0.5000000), wk =   0.0069444
        k(  284) = (   0.0833333   0.2083333  -0.4583333), wk =   0.0069444
        k(  285) = (   0.0833333   0.2083333  -0.4166667), wk =   0.0069444
        k(  286) = (   0.0833333   0.2083333  -0.3750000), wk =   0.0069444
        k(  287) = (   0.0833333   0.2083333  -0.3333333), wk =   0.0069444
        k(  288) = (   0.0833333   0.2083333  -0.2916667), wk =   0.0069444
        k(  289) = (   0.0833333   0.2083333  -0.2500000), wk =   0.0069444
        k(  290) = (   0.0833333   0.2083333  -0.2083333), wk =   0.0069444
        k(  291) = (   0.0833333   0.2083333  -0.1666667), wk =   0.0069444
        k(  292) = (   0.0833333   0.2083333  -0.1250000), wk =   0.0034722
        k(  293) = (   0.0833333   0.2500000   0.3333333), wk =   0.0034722
        k(  294) = (   0.0833333   0.2500000   0.3750000), wk =   0.0069444
        k(  295) = (   0.0833333   0.2500000   0.4166667), wk =   0.0069444
        k(  296) = (   0.0833333   0.2500000   0.4583333), wk =   0.0069444
        k(  297) = (   0.0833333   0.2500000  -0.5000000), wk =   0.0069444
        k(  298) = (   0.0833333   0.2500000  -0.4583333), wk =   0.0069444
        k(  299) = (   0.0833333   0.2500000  -0.4166667), wk =   0.0069444
        k(  300) = (   0.0833333   0.2500000  -0.3750000), wk =   0.0069444
        k(  301) = (   0.0833333   0.2500000  -0.3333333), wk =   0.0069444
        k(  302) = (   0.0833333   0.2500000  -0.2916667), wk =   0.0069444
        k(  303) = (   0.0833333   0.2500000  -0.2500000), wk =   0.0069444
        k(  304) = (   0.0833333   0.2500000  -0.2083333), wk =   0.0069444
        k(  305) = (   0.0833333   0.2500000  -0.1666667), wk =   0.0034722
        k(  306) = (   0.0833333   0.2916667   0.3750000), wk =   0.0034722
        k(  307) = (   0.0833333   0.2916667   0.4166667), wk =   0.0069444
        k(  308) = (   0.0833333   0.2916667   0.4583333), wk =   0.0069444
        k(  309) = (   0.0833333   0.2916667  -0.5000000), wk =   0.0069444
        k(  310) = (   0.0833333   0.2916667  -0.4583333), wk =   0.0069444
        k(  311) = (   0.0833333   0.2916667  -0.4166667), wk =   0.0069444
        k(  312) = (   0.0833333   0.2916667  -0.3750000), wk =   0.0069444
        k(  313) = (   0.0833333   0.2916667  -0.3333333), wk =   0.0069444
        k(  314) = (   0.0833333   0.2916667  -0.2916667), wk =   0.0069444
        k(  315) = (   0.0833333   0.2916667  -0.2500000), wk =   0.0069444
        k(  316) = (   0.0833333   0.2916667  -0.2083333), wk =   0.0034722
        k(  317) = (   0.0833333   0.3333333   0.4166667), wk =   0.0034722
        k(  318) = (   0.0833333   0.3333333   0.4583333), wk =   0.0069444
        k(  319) = (   0.0833333   0.3333333  -0.5000000), wk =   0.0069444
        k(  320) = (   0.0833333   0.3333333  -0.4583333), wk =   0.0069444
        k(  321) = (   0.0833333   0.3333333  -0.4166667), wk =   0.0069444
        k(  322) = (   0.0833333   0.3333333  -0.3750000), wk =   0.0069444
        k(  323) = (   0.0833333   0.3333333  -0.3333333), wk =   0.0069444
        k(  324) = (   0.0833333   0.3333333  -0.2916667), wk =   0.0069444
        k(  325) = (   0.0833333   0.3333333  -0.2500000), wk =   0.0034722
        k(  326) = (   0.0833333   0.3750000   0.4583333), wk =   0.0034722
        k(  327) = (   0.0833333   0.3750000  -0.5000000), wk =   0.0069444
        k(  328) = (   0.0833333   0.3750000  -0.4583333), wk =   0.0069444
        k(  329) = (   0.0833333   0.3750000  -0.4166667), wk =   0.0069444
        k(  330) = (   0.0833333   0.3750000  -0.3750000), wk =   0.0069444
        k(  331) = (   0.0833333   0.3750000  -0.3333333), wk =   0.0069444
        k(  332) = (   0.0833333   0.3750000  -0.2916667), wk =   0.0034722
        k(  333) = (   0.0833333   0.4166667  -0.5000000), wk =   0.0034722
        k(  334) = (   0.0833333   0.4166667  -0.4583333), wk =   0.0069444
        k(  335) = (   0.0833333   0.4166667  -0.4166667), wk =   0.0069444
        k(  336) = (   0.0833333   0.4166667  -0.3750000), wk =   0.0069444
        k(  337) = (   0.0833333   0.4166667  -0.3333333), wk =   0.0034722
        k(  338) = (   0.0833333   0.4583333  -0.4583333), wk =   0.0034722
        k(  339) = (   0.0833333   0.4583333  -0.4166667), wk =   0.0069444
        k(  340) = (   0.0833333   0.4583333  -0.3750000), wk =   0.0034722
        k(  341) = (   0.0833333  -0.5000000  -0.4166667), wk =   0.0017361
        k(  342) = (   0.1250000   0.2500000   0.3750000), wk =   0.0034722
        k(  343) = (   0.1250000   0.2500000   0.4166667), wk =   0.0069444
        k(  344) = (   0.1250000   0.2500000   0.4583333), wk =   0.0069444
        k(  345) = (   0.1250000   0.2500000  -0.5000000), wk =   0.0069444
        k(  346) = (   0.1250000   0.2500000  -0.4583333), wk =   0.0069444
        k(  347) = (   0.1250000   0.2500000  -0.4166667), wk =   0.0069444
        k(  348) = (   0.1250000   0.2500000  -0.3750000), wk =   0.0034722
        k(  349) = (   0.1250000   0.2916667   0.4166667), wk =   0.0034722
        k(  350) = (   0.1250000   0.2916667   0.4583333), wk =   0.0069444
        k(  351) = (   0.1250000   0.2916667  -0.5000000), wk =   0.0069444
        k(  352) = (   0.1250000   0.2916667  -0.4583333), wk =   0.0069444
        k(  353) = (   0.1250000   0.2916667  -0.4166667), wk =   0.0069444
        k(  354) = (   0.1250000   0.2916667  -0.3750000), wk =   0.0069444
        k(  355) = (   0.1250000   0.2916667  -0.3333333), wk =   0.0069444
        k(  356) = (   0.1250000   0.2916667  -0.2916667), wk =   0.0069444
        k(  357) = (   0.1250000   0.2916667  -0.2500000), wk =   0.0069444
        k(  358) = (   0.1250000   0.2916667  -0.2083333), wk =   0.0069444
        k(  359) = (   0.1250000   0.2916667  -0.1666667), wk =   0.0034722
        k(  360) = (   0.1250000   0.3333333   0.4583333), wk =   0.0034722
        k(  361) = (   0.1250000   0.3333333  -0.5000000), wk =   0.0069444
        k(  362) = (   0.1250000   0.3333333  -0.4583333), wk =   0.0069444
        k(  363) = (   0.1250000   0.3333333  -0.4166667), wk =   0.0069444
        k(  364) = (   0.1250000   0.3333333  -0.3750000), wk =   0.0069444
        k(  365) = (   0.1250000   0.3333333  -0.3333333), wk =   0.0069444
        k(  366) = (   0.1250000   0.3333333  -0.2916667), wk =   0.0069444
        k(  367) = (   0.1250000   0.3333333  -0.2500000), wk =   0.0069444
        k(  368) = (   0.1250000   0.3333333  -0.2083333), wk =   0.0034722
        k(  369) = (   0.1250000   0.3750000  -0.5000000), wk =   0.0034722
        k(  370) = (   0.1250000   0.3750000  -0.4583333), wk =   0.0069444
        k(  371) = (   0.1250000   0.3750000  -0.4166667), wk =   0.0069444
        k(  372) = (   0.1250000   0.3750000  -0.3750000), wk =   0.0069444
        k(  373) = (   0.1250000   0.3750000  -0.3333333), wk =   0.0069444
        k(  374) = (   0.1250000   0.3750000  -0.2916667), wk =   0.0069444
        k(  375) = (   0.1250000   0.3750000  -0.2500000), wk =   0.0034722
        k(  376) = (   0.1250000   0.4166667  -0.4583333), wk =   0.0034722
        k(  377) = (   0.1250000   0.4166667  -0.4166667), wk =   0.0069444
        k(  378) = (   0.1250000   0.4166667  -0.3750000), wk =   0.0069444
        k(  379) = (   0.1250000   0.4166667  -0.3333333), wk =   0.0069444
        k(  380) = (   0.1250000   0.4166667  -0.2916667), wk =   0.0034722
        k(  381) = (   0.1250000   0.4583333  -0.4166667), wk =   0.0034722
        k(  382) = (   0.1250000   0.4583333  -0.3750000), wk =   0.0069444
        k(  383) = (   0.1250000   0.4583333  -0.3333333), wk =   0.0034722
        k(  384) = (   0.1250000  -0.5000000  -0.3750000), wk =   0.0017361
        k(  385) = (   0.1666667   0.3333333  -0.5000000), wk =   0.0034722
        k(  386) = (   0.1666667   0.3333333  -0.4583333), wk =   0.0069444
        k(  387) = (   0.1666667   0.3333333  -0.4166667), wk =   0.0069444
        k(  388) = (   0.1666667   0.3333333  -0.3750000), wk =   0.0069444
        k(  389) = (   0.1666667   0.3333333  -0.3333333), wk =   0.0034722
        k(  390) = (   0.1666667   0.3750000  -0.4583333), wk =   0.0034722
        k(  391) = (   0.1666667   0.3750000  -0.4166667), wk =   0.0069444
        k(  392) = (   0.1666667   0.3750000  -0.3750000), wk =   0.0069444
        k(  393) = (   0.1666667   0.3750000  -0.3333333), wk =   0.0069444
        k(  394) = (   0.1666667   0.3750000  -0.2916667), wk =   0.0069444
        k(  395) = (   0.1666667   0.3750000  -0.2500000), wk =   0.0069444
        k(  396) = (   0.1666667   0.3750000  -0.2083333), wk =   0.0034722
        k(  397) = (   0.1666667   0.4166667  -0.4166667), wk =   0.0034722
        k(  398) = (   0.1666667   0.4166667  -0.3750000), wk =   0.0069444
        k(  399) = (   0.1666667   0.4166667  -0.3333333), wk =   0.0069444
        k(  400) = (   0.1666667   0.4166667  -0.2916667), wk =   0.0069444
        k(  401) = (   0.1666667   0.4166667  -0.2500000), wk =   0.0034722
        k(  402) = (   0.1666667   0.4583333  -0.3750000), wk =   0.0034722
        k(  403) = (   0.1666667   0.4583333  -0.3333333), wk =   0.0069444
        k(  404) = (   0.1666667   0.4583333  -0.2916667), wk =   0.0034722
        k(  405) = (   0.1666667  -0.5000000  -0.3333333), wk =   0.0017361
        k(  406) = (   0.2083333   0.4166667  -0.3750000), wk =   0.0034722
        k(  407) = (   0.2083333   0.4166667  -0.3333333), wk =   0.0069444
        k(  408) = (   0.2083333   0.4166667  -0.2916667), wk =   0.0034722
        k(  409) = (   0.2083333   0.4583333  -0.3333333), wk =   0.0034722
        k(  410) = (   0.2083333   0.4583333  -0.2916667), wk =   0.0069444
        k(  411) = (   0.2083333   0.4583333  -0.2500000), wk =   0.0034722
        k(  412) = (   0.2083333  -0.5000000  -0.2916667), wk =   0.0017361
        k(  413) = (   0.2500000  -0.5000000  -0.2500000), wk =   0.0008681

     Dense  grid:     8609 G-vectors     FFT dimensions: (  30,  30,  30)

     Dynamical RAM for                 wfc:       0.20 MB

     Dynamical RAM for     wfc (w. buffer):       0.20 MB

     Dynamical RAM for           str. fact:       0.26 MB

     Dynamical RAM for           local pot:       0.00 MB

     Dynamical RAM for          nlocal pot:       0.13 MB

     Dynamical RAM for                qrad:       0.28 MB

     Dynamical RAM for          rho,v,vnew:       1.01 MB

     Dynamical RAM for           G-vectors:       0.56 MB

     Dynamical RAM for          h,s,v(r/c):       0.11 MB

     Dynamical RAM for          <psi|beta>:       0.00 MB

     Dynamical RAM for                 psi:       0.79 MB

     Dynamical RAM for                hpsi:       0.79 MB

     Dynamical RAM for      wfcinit/wfcrot:       0.60 MB

     Estimated static dynamical RAM per process >       3.86 MB

     Estimated max dynamical RAM per process >       5.54 MB

     Estimated total dynamical RAM >      22.16 MB

     The potential is recalculated from file :
     ./BAs.save/charge-density

     Starting wfcs are   18 randomized atomic wfcs

     Band Structure Calculation
     Davidson diagonalization with overlap

     Computing kpt #:     1
     total cpu time spent up to now is        3.9 secs

     Computing kpt #:     2
     total cpu time spent up to now is        4.1 secs

     Computing kpt #:     3
     total cpu time spent up to now is        4.4 secs

     Computing kpt #:     4
     total cpu time spent up to now is        4.6 secs

     Computing kpt #:     5
     total cpu time spent up to now is        4.8 secs

     Computing kpt #:     6
     total cpu time spent up to now is        5.0 secs

     Computing kpt #:     7
     total cpu time spent up to now is        5.3 secs

     Computing kpt #:     8
     total cpu time spent up to now is        5.5 secs

     Computing kpt #:     9
     total cpu time spent up to now is        5.7 secs

     Computing kpt #:    10
     total cpu time spent up to now is        5.9 secs

     Computing kpt #:    11
     total cpu time spent up to now is        6.2 secs

     Computing kpt #:    12
     total cpu time spent up to now is        6.4 secs

     Computing kpt #:    13
     total cpu time spent up to now is        6.6 secs

     Computing kpt #:    14
     total cpu time spent up to now is        6.8 secs

     Computing kpt #:    15
     total cpu time spent up to now is        7.1 secs

     Computing kpt #:    16
     total cpu time spent up to now is        7.3 secs

     Computing kpt #:    17
     total cpu time spent up to now is        7.5 secs

     Computing kpt #:    18
     total cpu time spent up to now is        7.8 secs

     Computing kpt #:    19
     total cpu time spent up to now is        8.0 secs

     Computing kpt #:    20
     total cpu time spent up to now is        8.2 secs

     Computing kpt #:    21
     total cpu time spent up to now is        8.5 secs

     Computing kpt #:    22
     total cpu time spent up to now is        8.7 secs

     Computing kpt #:    23
     total cpu time spent up to now is        9.0 secs

     Computing kpt #:    24
     total cpu time spent up to now is        9.2 secs

     Computing kpt #:    25
     total cpu time spent up to now is        9.4 secs

[...]
     0.0000   0.0000   0.0000   0.0000

          k = 0.3333 0.0000 0.5833 (  1067 PWs)   bands (ev):

    -4.5112   2.4280   3.9952   6.1017  12.6140  14.1793  14.5239  16.9468
    19.9986  22.3397  24.6359  26.6969

     occupation numbers 
     1.0000   1.0000   1.0000   1.0000   0.0000   0.0000   0.0000   0.0000
     0.0000   0.0000   0.0000   0.0000

          k =-0.2500 0.6667 0.0000 (  1063 PWs)   bands (ev):

    -4.2255   2.2451   4.1773   5.2633  11.5656  13.1183  15.7681  17.9923
    20.6720  23.6972  25.1644  27.2915

     occupation numbers 
     1.0000   1.0000   1.0000   1.0000   0.0000   0.0000   0.0000   0.0000
     0.0000   0.0000   0.0000   0.0000

          k = 0.7083-0.2917 0.9583 (  1071 PWs)   bands (ev):

    -3.8665   1.7667   3.8393   5.0236  11.9039  13.3784  15.5831  18.3386
    20.6394  23.5489  25.5207  27.1573

     occupation numbers 
     1.0000   1.0000   1.0000   1.0000   0.0000   0.0000   0.0000   0.0000
     0.0000   0.0000   0.0000   0.0000

          k = 0.6667-0.2500 0.9167 (  1071 PWs)   bands (ev):

    -3.5098   1.2911   3.5676   4.8469  12.1070  13.9236  15.4202  18.4853
    20.3438  23.5247  25.6506  26.8529

     occupation numbers 
     1.0000   1.0000   1.0000   1.0000   0.0000   0.0000   0.0000   0.0000
     0.0000   0.0000   0.0000   0.0000

          k = 0.6250-0.2083 0.8750 (  1074 PWs)   bands (ev):

    -3.1982   0.8866   3.3430   4.7602  12.2400  14.5302  15.4041  18.4315
    19.8159  23.6121  25.5955  26.6143

     occupation numbers 
     1.0000   1.0000   1.0000   1.0000   0.0000   0.0000   0.0000   0.0000
     0.0000   0.0000   0.0000   0.0000

          k = 0.5833-0.1667 0.8333 (  1078 PWs)   bands (ev):

    -2.9985   0.6389   3.1611   4.7685  12.3709  14.7313  15.8663  18.1400
    19.3184  23.4886  25.5730  26.5512

     occupation numbers 
     1.0000   1.0000   1.0000   1.0000   0.0000   0.0000   0.0000   0.0000
     0.0000   0.0000   0.0000   0.0000

          k = 0.5417-0.1250 0.7917 (  1081 PWs)   bands (ev):

    -2.9781   0.6229   3.0321   4.8635  12.5246  14.6626  16.3655  17.8368
    19.0200  23.0255  25.6691  26.6998

     occupation numbers 
     1.0000   1.0000   1.0000   1.0000   0.0000   0.0000   0.0000   0.0000
     0.0000   0.0000   0.0000   0.0000

          k = 0.5000-0.0833 0.7500 (  1078 PWs)   bands (ev):

    -3.1442   0.8397   2.9771   5.0322  12.7024  14.5556  16.0681  18.1880
    18.8719  22.4458  25.7478  26.9311

     occupation numbers 
     1.0000   1.0000   1.0000   1.0000   0.0000   0.0000   0.0000   0.0000
     0.0000   0.0000   0.0000   0.0000

          k = 0.4583-0.0417 0.7083 (  1075 PWs)   bands (ev):

    -3.4362   1.2017   3.0321   5.2605  12.8846  14.4233  15.4309  18.2940
    19.2415  21.9919  25.7332  27.0285

     occupation numbers 
     1.0000   1.0000   1.0000   1.0000   0.0000   0.0000   0.0000   0.0000
     0.0000   0.0000   0.0000   0.0000

          k = 0.4167-0.0000 0.6667 (  1072 PWs)   bands (ev):

    -3.7848   1.5868   3.2534   5.5321  12.9995  14.2026  14.9740  17.9146
    19.8041  21.8769  25.5279  26.9201

     occupation numbers 
     1.0000   1.0000   1.0000   1.0000   0.0000   0.0000   0.0000   0.0000
     0.0000   0.0000   0.0000   0.0000

          k = 0.7500-0.2500 1.0000 (  1067 PWs)   bands (ev):

    -3.6883   1.6262   3.9447   4.7082  11.4642  12.5973  16.5083  18.8460
    20.8771  24.1609  25.7508  27.7310

     occupation numbers 
     1.0000   1.0000   1.0000   1.0000   0.0000   0.0000   0.0000   0.0000
     0.0000   0.0000   0.0000   0.0000

          k = 0.7083-0.2083 0.9583 (  1072 PWs)   bands (ev):

    -3.3462   1.2467   3.6100   4.5022  11.8026  12.9680  16.3137  19.0508
    20.6181  23.9976  25.8171  27.6450

     occupation numbers 
     1.0000   1.0000   1.0000   1.0000   0.0000   0.0000   0.0000   0.0000
     0.0000   0.0000   0.0000   0.0000

          k = 0.6667-0.1667 0.9167 (  1073 PWs)   bands (ev):

    -3.0392   0.9192   3.2742   4.4170  11.9808  13.6640  16.1317  18.8700
    20.2701  23.9559  25.6725  27.5367

     occupation numbers 
     1.0000   1.0000   1.0000   1.0000   0.0000   0.0000   0.0000   0.0000
     0.0000   0.0000   0.0000   0.0000

          k = 0.6250-0.1250 0.8750 (  1080 PWs)   bands (ev):

    -2.8241   0.7045   2.9770   4.4399  12.1203  14.4833  15.9986  18.3005
    19.9998  23.7426  25.6031  27.5412

     occupation numbers 
     1.0000   1.0000   1.0000   1.0000   0.0000   0.0000   0.0000   0.0000
     0.0000   0.0000   0.0000   0.0000

          k = 0.5833-0.0833 0.8333 (  1081 PWs)   bands (ev):

    -2.7631   0.6615   2.7583   4.5505  12.2795  15.1536  16.0181  17.6100
    19.7682  23.2286  25.7413  27.6425

     occupation numbers 
     1.0000   1.0000   1.0000   1.0000   0.0000   0.0000   0.0000   0.0000
     0.0000   0.0000   0.0000   0.0000

          k = 0.5417-0.0417 0.7917 (  1078 PWs)   bands (ev):

    -2.8762   0.7908   2.6592   4.7330  12.4703  15.3116  16.0007  17.4681
    19.4795  22.6415  25.8952  27.7202

     occupation numbers 
     1.0000   1.0000   1.0000   1.0000   0.0000   0.0000   0.0000   0.0000
     0.0000   0.0000   0.0000   0.0000

          k = 0.5000 0.0000 0.7500 (  1075 PWs)   bands (ev):

    -3.1212   1.0064   2.7345   4.9745  12.6847  15.0549  15.5773  18.1491
    19.1006  22.1894  25.9266  27.5298

     occupation numbers 
     1.0000   1.0000   1.0000   1.0000   0.0000   0.0000   0.0000   0.0000
     0.0000   0.0000   0.0000   0.0000

          k = 0.7500-0.1667 1.0000 (  1077 PWs)   bands (ev):

    -3.1603   1.0345   3.7986   4.2807  11.4331  12.1778  17.2756  19.4043
    20.9200  24.4902  25.8601  28.0669

     occupation numbers 
     1.0000   1.0000   1.0000   1.0000   0.0000   0.0000   0.0000   0.0000
     0.0000   0.0000   0.0000   0.0000

          k = 0.7083-0.1250 0.9583 (  1074 PWs)   bands (ev):

    -2.8757   0.7791   3.4550   4.1420  11.7483  12.6771  17.0808  19.1486
    20.7518  24.3629  25.6461  28.1664

     occupation numbers 
     1.0000   1.0000   1.0000   1.0000   0.0000   0.0000   0.0000   0.0000
     0.0000   0.0000   0.0000   0.0000

          k = 0.6667-0.0833 0.9167 (  1076 PWs)   bands (ev):

    -2.6727   0.6268   3.0665   4.1679  11.9025  13.5034  16.8928  18.4629
    20.6239  24.1055  25.5267  28.2770

     occupation numbers 
     1.0000   1.0000   1.0000   1.0000   0.0000   0.0000   0.0000   0.0000
     0.0000   0.0000   0.0000   0.0000

          k = 0.6250-0.0417 0.8750 (  1078 PWs)   bands (ev):

    -2.6016   0.6062   2.7522   4.2887  12.0581  14.4265  16.6984  17.6534
    20.4078  23.5825  25.6559  28.3918

     occupation numbers 
     1.0000   1.0000   1.0000   1.0000   0.0000   0.0000   0.0000   0.0000
     0.0000   0.0000   0.0000   0.0000

          k = 0.5833 0.0000 0.8333 (  1083 PWs)   bands (ev):

    -2.6794   0.6909   2.5917   4.4812  12.2479  15.2667  16.3036  17.1722
    20.0334  23.0363  25.8262  28.2946

     occupation numbers 
     1.0000   1.0000   1.0000   1.0000   0.0000   0.0000   0.0000   0.0000
     0.0000   0.0000   0.0000   0.0000

          k = 0.7500-0.0833 1.0000 (  1080 PWs)   bands (ev):

    -2.7260   0.5569   3.7441   3.9901  11.4761  11.8629  18.0378  19.3527
    21.0849  24.7986  25.5562  28.2499

     occupation numbers 
     1.0000   1.0000   1.0000   1.0000   0.0000   0.0000   0.0000   0.0000
     0.0000   0.0000   0.0000   0.0000

          k = 0.7083-0.0417 0.9583 (  1077 PWs)   bands (ev):

    -2.5689   0.4727   3.3767   3.9603  11.7291  12.5227  17.8394  18.6479
    21.0462  24.5934  25.3691  28.4066

     occupation numbers 
     1.0000   1.0000   1.0000   1.0000   0.0000   0.0000   0.0000   0.0000
     0.0000   0.0000   0.0000   0.0000

          k = 0.6667-0.0000 0.9167 (  1075 PWs)   bands (ev):

    -2.5273   0.5081   2.9908   4.0880  11.8760  13.4494  17.5136  17.9002
    20.8408  24.0832  25.4918  28.5651

     occupation numbers 
     1.0000   1.0000   1.0000   1.0000   0.0000   0.0000   0.0000   0.0000
     0.0000   0.0000   0.0000   0.0000

          k =-0.2500-1.0000 0.0000 (  1082 PWs)   bands (ev):

    -2.5438   0.3590   3.7594   3.8599  11.5533  11.6949  18.6083  18.9600
    21.2183  25.1007  25.1987  28.2865

     occupation numbers 
     1.0000   1.0000   1.0000   1.0000   0.0000   0.0000   0.0000   0.0000
     0.0000   0.0000   0.0000   0.0000

          k = 0.6667-0.3333 1.0000 (  1072 PWs)   bands (ev):

    -4.0258   1.9212   3.6974   5.3847  12.5000  13.9681  14.7334  17.9531
    20.3336  22.7958  25.3297  27.0433

     occupation numbers 
     1.0000   1.0000   1.0000   1.0000   0.0000   0.0000   0.0000   0.0000
     0.0000   0.0000   0.0000   0.0000

          k = 0.6250-0.2917 0.9583 (  1067 PWs)   bands (ev):

    -3.6642   1.4820   3.4129   5.1193  12.8134  14.1937  14.7047  18.3143
    20.0431  22.6925  25.6132  26.9918

     occupation numbers 
     1.0000   1.0000   1.0000   1.0000   0.0000   0.0000   0.0000   0.0000
     0.0000   0.0000   0.0000   0.0000

          k = 0.5833-0.2500 0.9167 (  1072 PWs)   bands (ev):

    -3.3280   1.0492   3.2563   4.9038  12.9572  14.1982  15.1988  18.4326
    19.5218  22.9027  25.6795  26.7949

     occupation numbers 
     1.0000   1.0000   1.0000   1.0000   0.0000   0.0000   0.0000   0.0000
     0.0000   0.0000   0.0000   0.0000

          k = 0.5417-0.2083 0.8750 (  1074 PWs)   bands (ev):

    -3.0744   0.7212   3.1826   4.7632  13.0150  14.1169  15.9219  18.1556
    19.1427  23.2631  25.6189  26.5414

     occupation numbers 
     1.0000   1.0000   1.0000   1.0000   0.0000   0.0000   0.0000   0.0000
     0.0000   0.0000   0.0000   0.0000

          k = 0.5000-0.1667 0.8333 (  1072 PWs)   bands (ev):

    -2.9768   0.5964   3.1616   4.7143  13.0314  14.0830  16.3616  17.8069
    19.0672  23.4506  25.5610  26.4218

     occupation numbers 
     1.0000   1.0000   1.0000   1.0000   0.0000   0.0000   0.0000   0.0000
     0.0000   0.0000   0.0000   0.0000

          k = 0.6667-0.2500 1.0000 (  1066 PWs)   bands (ev):

    -3.5202   1.4372   3.4857   4.7240  12.4216  13.5015  15.3811  18.7997
    20.3051  23.3476  25.7800  27.4947

     occupation numbers 
     1.0000   1.0000   1.0000   1.0000   0.0000   0.0000   0.0000   0.0000
     0.0000   0.0000   0.0000   0.0000

          k = 0.6250-0.2083 0.9583 (  1072 PWs)   bands (ev):

    -3.1903   1.1021   3.2250   4.4851  12.7547  13.9409  15.2244  18.8021
    19.9669  23.4012  25.8052  27.5187

     occupation numbers 
     1.0000   1.0000   1.0000   1.0000   0.0000   0.0000   0.0000   0.0000
     0.0000   0.0000   0.0000   0.0000

          k = 0.5833-0.1667 0.9167 (  1077 PWs)   bands (ev):

    -2.9246   0.8231   3.0398   4.3437  12.9166  14.4694  15.2841  18.2054
    19.8830  23.6143  25.6579  27.3980

     occupation numbers 
     1.0000   1.0000   1.0000   1.0000   0.0000   0.0000   0.0000   0.0000
     0.0000   0.0000   0.0000   0.0000

          k = 0.5417-0.1250 0.8750 (  1078 PWs)   bands (ev):

    -2.7878   0.6817   2.9154   4.3157  13.0375  14.5857  15.8106  17.4599
    19.8512  23.6682  25.5626  27.3542

     occupation numbers 
     1.0000   1.0000   1.0000   1.0000   0.0000   0.0000   0.0000   0.0000
     0.0000   0.0000   0.0000   0.0000

          k = 0.5000-0.0833 0.8333 (  1076 PWs)   bands (ev):

    -2.8272   0.7308   2.8577   4.3971  13.1529  14.5331  15.8712  17.3994
    19.7580  23.3727  25.6847  27.4323

     occupation numbers 
     1.0000   1.0000   1.0000   1.0000   0.0000   0.0000   0.0000   0.0000
     0.0000   0.0000   0.0000   0.0000

          k = 0.4583-0.0417 0.7917 (  1078 PWs)   bands (ev):

    -3.0269   0.9414   2.8947   4.5724  13.2388  14.4763  15.2056  18.1429
    19.5871  22.9538  25.8345  27.5391

     occupation numbers 
     1.0000   1.0000   1.0000   1.0000   0.0000   0.0000   0.0000   0.0000
     0.0000   0.0000   0.0000   0.0000

          k = 0.4167 0.0000 0.7500 (  1072 PWs)   bands (ev):

    -3.3252   1.2204   3.0692   4.8212  13.1848  14.3505  14.7199  18.6572
    19.5574  22.6787  25.8385  27.4236

     occupation numbers 
     1.0000   1.0000   1.0000   1.0000   0.0000   0.0000   0.0000   0.0000
     0.0000   0.0000   0.0000   0.0000

          k = 0.6667-0.1667 1.0000 (  1080 PWs)   bands (ev):

    -3.0358   0.9885   3.3692   4.1754  12.3951  13.1267  16.1050  19.0059
    20.4386  23.9248  25.7699  28.0493

     occupation numbers 
     1.0000   1.0000   1.0000   1.0000   0.0000   0.0000   0.0000   0.0000
     0.0000   0.0000   0.0000   0.0000

          k = 0.6250-0.1250 0.9583 (  1074 PWs)   bands (ev):

    -2.7790   0.7822   3.1248   3.9922  12.7134  13.7109  15.9245  18.3147
    20.5174  24.0169  25.5636  28.1436

     occupation numbers 
     1.0000   1.0000   1.0000   1.0000   0.0000   0.0000   0.0000   0.0000
     0.0000   0.0000   0.0000   0.0000

          k = 0.5833-0.0833 0.9167 (  1077 PWs)   bands (ev):

    -2.6296   0.6750   2.8916   3.9742  12.8717  14.5029  15.8135  17.4357
    20.5347  23.9806  25.4439  28.1728

     occupation numbers 
     1.0000   1.0000   1.0000   1.0000   0.0000   0.0000   0.0000   0.0000
     0.0000   0.0000   0.0000   0.0000

          k = 0.5417-0.0417 0.8750 (  1078 PWs)   bands (ev):

    -2.6303   0.6946   2.7350   4.0852  13.0225  15.0637  15.7718  16.8133
    20.3927  23.6327  25.5833  28.2244

     occupation numbers 
     1.0000   1.0000   1.0000   1.0000   0.0000   0.0000   0.0000   0.0000
     0.0000   0.0000   0.0000   0.0000

          k = 0.5000 0.0000 0.8333 (  1073 PWs)   bands (ev):

    -2.7775   0.8085   2.7203   4.2922  13.1730  15.0953  15.2898  17.2787
    20.0644  23.2202  25.7690  28.1065

     occupation numbers 
     1.0000   1.0000   1.0000   1.0000   0.0000   0.0000   0.0000   0.0000
     0.0000   0.0000   0.0000   0.0000

          k = 0.6667-0.0833 1.0000 (  1078 PWs)   bands (ev):

    -2.6527   0.6335   3.3559   3.7751  12.4227  12.8551  16.8787  18.4624
    20.9195  24.4407  25.3910  28.3718

     occupation numbers 
     1.0000   1.0000   1.0000   1.0000   0.0000   0.0000   0.0000   0.0000
     0.0000   0.0000   0.0000   0.0000

          k = 0.6250-0.0417 0.9583 (  1075 PWs)   bands (ev):

    -2.5244   0.5827   3.0989   3.7078  12.6946  13.5868  16.6957  17.5421
    20.9868  24.4070  25.2248  28.4830

     occupation numbers 
     1.0000   1.0000   1.0000   1.0000   0.0000   0.0000   0.0000   0.0000
     0.0000   0.0000   0.0000   0.0000

          k = 0.5833 0.0000 0.9167 (  1077 PWs)   bands (ev):

    -2.5189   0.6219   2.8362   3.8466  12.8542  14.4886  16.3885  16.7913
    20.8182  24.0295  25.3846  28.5296

     occupation numbers 
     1.0000   1.0000   1.0000   1.0000   0.0000   0.0000   0.0000   0.0000
     0.0000   0.0000   0.0000   0.0000

          k =-0.3333-1.0000 0.0000 (  1080 PWs)   bands (ev):

    -2.4983   0.4893   3.4078   3.5832  12.4603  12.7357  17.5654  17.8125
    21.1497  24.8490  24.9751  28.4421

     occupation numbers 
     1.0000   1.0000   1.0000   1.0000   0.0000   0.0000   0.0000   0.0000
     0.0000   0.0000   0.0000   0.0000

          k = 0.5833-0.1667 1.0000 (  1076 PWs)   bands (ev):

    -2.9020   0.9107   2.9939   4.1791  13.2893  14.1811  15.0936  18.2013
    20.1676  23.5175  25.7442  28.0372

     occupation numbers 
     1.0000   1.0000   1.0000   1.0000   0.0000   0.0000   0.0000   0.0000
     0.0000   0.0000   0.0000   0.0000

          k = 0.5417-0.1250 0.9583 (  1070 PWs)   bands (ev):

    -2.6920   0.7545   2.8713   3.9731  13.4903  14.6088  15.2179  17.3060
    20.4233  23.7843  25.5478  28.1456

     occupation numbers 
     1.0000   1.0000   1.0000   1.0000   0.0000   0.0000   0.0000   0.0000
     0.0000   0.0000   0.0000   0.0000

          k = 0.5000-0.0833 0.9167 (  1074 PWs)   bands (ev):

    -2.6134   0.6923   2.8349   3.8999  13.5290  14.7001  15.6103  16.7230
    20.5131  23.9477  25.4161  28.1309

     occupation numbers 
     1.0000   1.0000   1.0000   1.0000   0.0000   0.0000   0.0000   0.0000
     0.0000   0.0000   0.0000   0.0000

          k = 0.5833-0.0833 1.0000 (  1077 PWs)   bands (ev):

    -2.5853   0.6862   3.0401   3.6672  13.3530  13.9787  15.7616  17.3813
    20.8505  24.2207  25.3235  28.4488

     occupation numbers 
     1.0000   1.0000   1.0000   1.0000   0.0000   0.0000   0.0000   0.0000
     0.0000   0.0000   0.0000   0.0000

          k = 0.5417-0.0417 0.9583 (  1069 PWs)   bands (ev):

    -2.4979   0.6539   2.9451   3.5620  13.5925  14.6297  15.6664  16.4881
    20.9690  24.3326  25.1583  28.5211

     occupation numbers 
     1.0000   1.0000   1.0000   1.0000   0.0000   0.0000   0.0000   0.0000
     0.0000   0.0000   0.0000   0.0000

          k = 0.5000 0.0000 0.9167 (  1073 PWs)   bands (ev):

    -2.5379   0.6868   2.8537   3.6935  13.6599  15.0109  15.2902  16.4660
    20.8235  24.0860  25.3264  28.4933

     occupation numbers 
     1.0000   1.0000   1.0000   1.0000   0.0000   0.0000   0.0000   0.0000
     0.0000   0.0000   0.0000   0.0000

          k =-0.4167-1.0000 0.0000 (  1070 PWs)   bands (ev):

    -2.4639   0.6004   3.1500   3.3957  13.3811  13.8975  16.5433  16.5443
    21.1294  24.7253  24.8641  28.5491

     occupation numbers 
     1.0000   1.0000   1.0000   1.0000   0.0000   0.0000   0.0000   0.0000
     0.0000   0.0000   0.0000   0.0000

          k =-0.5000-1.0000 0.0000 (  1084 PWs)   bands (ev):

    -2.4511   0.6454   3.0538   3.3296  13.8993  14.8937  15.5066  15.9881
    21.1255  24.6879  24.8309  28.5889

     occupation numbers 
     1.0000   1.0000   1.0000   1.0000   0.0000   0.0000   0.0000   0.0000
     0.0000   0.0000   0.0000   0.0000

     the Fermi energy is     8.9053 ev

     Writing output data file BAs.save/

     init_run     :      0.10s CPU      0.11s WALL (       1 calls)
     electrons    :     24.34s CPU     24.97s WALL (       1 calls)

     Called by init_run:
     wfcinit      :      0.00s CPU      0.00s WALL (       1 calls)
     wfcinit:atom :      0.03s CPU      0.03s WALL (     104 calls)
     wfcinit:wfcr :      1.52s CPU      1.53s WALL (     104 calls)
     potinit      :      0.00s CPU      0.00s WALL (       1 calls)
     hinit0       :      0.09s CPU      0.09s WALL (       1 calls)

     Called by electrons:
     c_bands      :     24.14s CPU     24.76s WALL (       1 calls)
     v_of_rho     :      0.00s CPU      0.00s WALL (       1 calls)
     v_h          :      0.00s CPU      0.00s WALL (       1 calls)
     v_xc         :      0.00s CPU      0.00s WALL (       1 calls)

     Called by c_bands:
     init_us_2    :      0.02s CPU      0.02s WALL (     104 calls)
     cegterg      :     20.42s CPU     20.55s WALL (     181 calls)

     Called by sum_band:

     Called by *egterg:
     h_psi        :     15.94s CPU     16.05s WALL (    2740 calls)
     g_psi        :      0.09s CPU      0.09s WALL (    2455 calls)
     cdiaghg      :      0.92s CPU      0.92s WALL (    2559 calls)
     cegterg:over :      2.08s CPU      2.09s WALL (    2455 calls)
     cegterg:upda :      1.56s CPU      1.56s WALL (    2455 calls)
     cegterg:last :      1.00s CPU      1.00s WALL (     595 calls)

     Called by h_psi:
     h_psi:pot    :     15.90s CPU     16.01s WALL (    2740 calls)
     h_psi:calbec :      0.32s CPU      0.32s WALL (    2740 calls)
     vloc_psi     :     15.25s CPU     15.35s WALL (    2740 calls)
     add_vuspsi   :      0.33s CPU      0.33s WALL (    2740 calls)

     General routines
     calbec       :      0.31s CPU      0.31s WALL (    2740 calls)
     fft          :      0.00s CPU      0.00s WALL (       3 calls)
     fftw         :     14.03s CPU     14.11s WALL (   43844 calls)
     davcio       :      0.00s CPU      0.01s WALL (     208 calls)

     Parallel routines

     PWSCF        :     28.10s CPU     28.84s WALL


   This run was terminated on:  16:46: 0  26Aug2019            

=------------------------------------------------------------------------------=
   JOB DONE.
=------------------------------------------------------------------------------=
