                                                                                      
                                       ``:oss/                                        
                           `.+s+.     .+ys--yh+     `./ss+.                           
                          -sh//yy+`   +yy   +yy    -+h+-oyy                           
                          -yh- .oyy/.-sh.   .syo-.:sy-  /yh                           
                 `.-.`    `yh+   -oyyyo.     `/syys:    oys      `.`                  
               `/+ssys+-` `sh+      `                   oys`   .:osyo`                
               -yh- ./syyooyo`                          .sys+/oyo--yh/                
               `yy+    .-:-.                             `-/+/:`  -sh-                
                /yh.                                              oys                 
          ``..---hho---------`   .---------..`      `.-----.`    -hd+---.             
       `./osmNMMMMMMMMMMMMMMMs. +NNMMMMMMMMNNmh+.   yNMMMMMNm-  oNMMMMMNmo++:`        
       +sy--/sdMMMhyyyyyyyNMMh- .oyNMMmyyyyyhNMMm+` -yMMMdyyo:` .oyyNMMNhs+syy`       
       -yy/   /MMM+.`-+/``mMMy-   `mMMh:`````.dMMN:` `MMMy-`-dhhy```mMMy:``+hs        
        -yy+` /MMMo:-mMM+`-oo/.    mMMh:     `dMMN/`  dMMm:`dMMMMy..MMMo-.+yo`        
         .sys`/MMMMNNMMMs-         mMMmyooooymMMNo:   oMMM/sMMMMMM++MMN//oh:          
          `sh+/MMMhyyMMMs- `-`     mMMMMMMMMMNmy+-`   -MMMhMMMsmMMmdMMd/yy+           
    `-/+++oyy-/MMM+.`/hh/.`mNm:`   mMMd+/////:-.`      NMMMMMd/:NMMMMMy:/yyo/:.`      
   +os+//:-..-oMMMo:--:::-/MMMo. .-mMMd+---`           hMMMMN+. oMMMMMo. `-+osyso:`   
   syo     `mNMMMMMNNNNNNNNMMMo.oNNMMMMMNNNN:`         +MMMMs:`  dMMMN/`     ``:syo   
   /yh`     :syyyyyyyyyyyyyyyy+.`+syyyyyyyyo:`         .oyys:`   .oyys:`        +yh   
   -yh-        ````````````````    `````````              ``        ``          oys   
   -+h/------------------------::::::::://////++++++++++++++++++++++///////::::/yd:   
   shdddddddddddddddddddddddddddddhhhhhhhhyyyyyssssssssssssssssyyyyyyyhhhhhhhddddh`   
                                                                                      
  S. Ponce, E. R. Margine, C. Verdi, and F. Giustino,                                 
                                                Comput. Phys. Commun. 209, 116 (2016) 
                                                                                      

     Program EPW v.5.3.0 starts on  8Aug2020 at 19:38:33 

     This program is part of the open-source Quantum ESPRESSO suite
     for quantum simulation of materials; please cite
         "P. Giannozzi et al., J. Phys.:Condens. Matter 21 395502 (2009);
         "P. Giannozzi et al., J. Phys.:Condens. Matter 29 465901 (2017);
          URL http://www.quantum-espresso.org", 
     in publications or presentations arising from this work. More details at
     http://www.quantum-espresso.org/quote

     Parallel version (MPI & OpenMP), running on    1836 processor cores
     Number of MPI processes:              1836
     Threads/MPI process:                     1

     MPI processes distributed on    27 nodes
     K-points division:     npool     =    1836
     Fft bands division:     nmany     =       1

     WARNING: The specified dis_win_min is ignored.
              You should instead use bands_skipped = 'exclude_bands = ...'
              to control the lower bound of band manifold.

     Generating evenly spaced temperature list.
                      
     ------------------------------------------------------------------------ 
                   RESTART - RESTART - RESTART - RESTART                         
     Restart is done without reading PWSCF save file.                  
     Be aware that some consistency checks are therefore not done.                  
     ------------------------------------------------------------------------ 
                      

     --                                                                         

     bravais-lattice index     =            0
     lattice parameter (a_0)   =       0.0000  a.u.
     unit-cell volume          =       0.0000 (a.u.)^3
     number of atoms/cell      =            0
     number of atomic types    =            0
     kinetic-energy cut-off    =       0.0000  Ry
     charge density cut-off    =       0.0000  Ry
     Exchange-correlation= not set
                           (  -1  -1  -1  -1  -1  -1  -1)


     celldm(1)=    0.00000  celldm(2)=    0.00000  celldm(3)=    0.00000
     celldm(4)=    0.00000  celldm(5)=    0.00000  celldm(6)=    0.00000

     crystal axes: (cart. coord. in units of a_0)
               a(1) = (  0.0000  0.0000  0.0000 )  
               a(2) = (  0.0000  0.0000  0.0000 )  
               a(3) = (  0.0000  0.0000  0.0000 )  

     reciprocal axes: (cart. coord. in units 2 pi/a_0)
               b(1) = (  0.0000  0.0000  0.0000 )  
               b(2) = (  0.0000  0.0000  0.0000 )  
               b(3) = (  0.0000  0.0000  0.0000 )  


     Atoms inside the unit cell: 

   Cartesian axes

     site n.  atom      mass           positions (a_0 units)

 
     No symmetry!

     G cutoff =    0.0000  (      0 G-vectors)     FFT grid: (  0,  0,  0)
     number of k points=    0
                       cart. coord. in units 2pi/a_0
     EPW          :      0.04s CPU      0.29s WALL

     EPW          :      0.04s CPU      0.29s WALL


     -------------------------------------------------------------------
     Using GeO2.ukk from disk
     -------------------------------------------------------------------

     Reading external electronic eigenvalues (    0,    0)

     Do not need to read .epb files; read .fmt files


     Band disentanglement is used: nbndsub =   24

     Computes the analytic long-range interaction for polar materials [lpolar]
      
     Construct the Wigner-Seitz cell using Wannier centers and atomic positions 
     Number of WS vectors for electrons      175
     Number of WS vectors for phonons      175
     Number of WS vectors for electron-phonon      175
     Maximum number of cores for efficient parallelization     1050

     Reading Hamiltonian, Dynamical matrix and EP vertex in Wann rep from file


     Finished reading Wann rep data from file

     ===================================================================
     Memory usage:  VmHWM =       150Mb
                   VmPeak =      2211Mb
     ===================================================================
     
     Using uniform q-mesh:  138  92  92
     Size of q point mesh for interpolation:    1168032
     Using uniform MP k-mesh:  138  92  92
     Size of k point mesh for interpolation:     157920
     Max number of k points per pool:               88

     Fermi energy coarse grid =   6.722701 eV

     ===================================================================

     Fermi energy is read from the input file: Ef =  10.107076 eV

     ===================================================================

              ibndmin =    17  ebndmin =     0.743
              ibndmax =    17  ebndmax =     0.782


     Number of ep-matrix elements per pool :          792 ~=    6.19 Kb (@ 8 bytes/ DP)
     Number selected, total           1000           7800
     Number selected, total           2000          15367
     Number selected, total           3000          17759
     Number selected, total           4000          25575
     Number selected, total           5000          33556
     Number selected, total           6000          41493
     Number selected, total           7000          49490
     Number selected, total           8000          57584
     Number selected, total           9000          66040
     Number selected, total          10000          74795
     Number selected, total          11000          84076
     Number selected, total          12000         100178
     Number selected, total          13000         990563
     Number selected, total          14000        1007662
     Number selected, total          15000        1023510
     Number selected, total          16000        1032601
     Number selected, total          17000        1041343
     Number selected, total          18000        1049914
     Number selected, total          19000        1058370
     Number selected, total          20000        1066718
     Number selected, total          21000        1074923
     Number selected, total          22000        1083096
     Number selected, total          23000        1091123
     Number selected, total          24000        1099035
     Number selected, total          25000        1101516
     Number selected, total          26000        1109408
     Number selected, total          27000        1117321
     Number selected, total          28000        1125166
     Number selected, total          29000        1132968
     Number selected, total          30000        1135289
     Number selected, total          31000        1143075
     Number selected, total          32000        1150835
     Number selected, total          33000        1158566
     Number selected, total          34000        1165909
     We only need to compute    34752 q-points
      
     Valence band maximum    =   5.667368 eV
     Conduction band minimum =  10.107076 eV

     Temperature  100.000 K
     Mobility CB Fermi level =  10.089885 eV

     Temperature  200.000 K
     Mobility CB Fermi level =  10.054078 eV

     Temperature  300.000 K
     Mobility CB Fermi level =  10.011423 eV

     Temperature  400.000 K
     Mobility CB Fermi level =   9.964324 eV

     Temperature  500.000 K
     Mobility CB Fermi level =   9.913923 eV

     Temperature  600.000 K
     Mobility CB Fermi level =   9.860885 eV

     Temperature  700.000 K
     Mobility CB Fermi level =   9.805651 eV

     Temperature  800.000 K
     Mobility CB Fermi level =   9.748534 eV

     Temperature  900.000 K
     Mobility CB Fermi level =   9.689764 eV

     Temperature 1000.000 K
     Mobility CB Fermi level =   9.629520 eV

     ===================================================================
     Scattering rate for IBTE
     ===================================================================

     Restart and restart_step inputs deactivated (restart point at every q-points).
     No intermediate mobility will be shown.

     Fermi Surface thickness =   0.530000 eV
     This is computed with respect to the fine Fermi level  10.107076 eV
     Only states between   9.577076 eV and  10.637076 eV will be included

     Save matrix elements larger than threshold:   0.732977287990E-28
      
     Progression iq (fine) =       1000/     34752
     Progression iq (fine) =       2000/     34752
     Progression iq (fine) =       3000/     34752
     Progression iq (fine) =       4000/     34752
     Progression iq (fine) =       5000/     34752
     Progression iq (fine) =       6000/     34752
     Progression iq (fine) =       7000/     34752
     Progression iq (fine) =       8000/     34752
     Progression iq (fine) =       9000/     34752
     Progression iq (fine) =      10000/     34752
     Progression iq (fine) =      11000/     34752
     Progression iq (fine) =      12000/     34752
     Progression iq (fine) =      13000/     34752
     Progression iq (fine) =      14000/     34752
     Progression iq (fine) =      15000/     34752
     Progression iq (fine) =      16000/     34752
     Progression iq (fine) =      17000/     34752
     Progression iq (fine) =      18000/     34752
     Progression iq (fine) =      19000/     34752
     Progression iq (fine) =      20000/     34752
     Progression iq (fine) =      21000/     34752
     Progression iq (fine) =      22000/     34752
     Progression iq (fine) =      23000/     34752
     Progression iq (fine) =      24000/     34752
     Progression iq (fine) =      25000/     34752
     Progression iq (fine) =      26000/     34752
     Progression iq (fine) =      27000/     34752
     Progression iq (fine) =      28000/     34752
     Progression iq (fine) =      29000/     34752
     Progression iq (fine) =      30000/     34752
     Progression iq (fine) =      31000/     34752
     Progression iq (fine) =      32000/     34752
     Progression iq (fine) =      33000/     34752
     Progression iq (fine) =      34000/     34752
      100.000     10.0899       0.999993E+17
      200.000     10.0541       0.100000E+18
      300.000     10.0114       0.100000E+18
      400.000      9.9643       0.999993E+17
      500.000      9.9139       0.100001E+18
      600.000      9.8609       0.100000E+18
      700.000      9.8057       0.999995E+17
      800.000      9.7485       0.999999E+17
      900.000      9.6898       0.100000E+18
     1000.000      9.6295       0.100000E+18
      
     epmatkqread automatically changed to .TRUE. as all scattering have been computed.
      
     ===================================================================
     Memory usage:  VmHWM =       473Mb
                   VmPeak =      3571Mb
     ===================================================================

     Number of elements per core      22576
     Symmetry mapping finished
      
     =============================================================================================
     BTE in the self-energy relaxation time approximation (SERTA)
     =============================================================================================

     =============================================================================================
       Temp     Fermi   Elec density  Population SR                  Elec mobility 
        [K]      [eV]     [cm^-3]      [e per cell]                    [cm^2/Vs]
     =============================================================================================

      100.000  10.0899   0.99999E+17  -0.11521E-15    0.811037E+04    0.548005E-13    0.000000E+00
                                                      0.183081E-13    0.597331E+04    0.000000E+00
                                                      0.000000E+00    0.000000E+00    0.597331E+04
      200.000  10.0541   0.10000E+18   0.67381E-17    0.729221E+03    0.366644E-15    0.000000E+00
                                                      0.231625E-15    0.539864E+03    0.000000E+00
                                                      0.000000E+00    0.000000E+00    0.539864E+03
      300.000  10.0114   0.10000E+18  -0.22179E-17    0.229253E+03   -0.573353E-15    0.000000E+00
                                                     -0.117555E-15    0.163791E+03    0.000000E+00
                                                      0.000000E+00    0.000000E+00    0.163791E+03
      400.000   9.9643   0.99999E+17   0.28849E-18    0.114220E+03    0.270014E-15    0.000000E+00
                                                      0.125866E-15    0.809582E+02    0.000000E+00
                                                      0.000000E+00    0.000000E+00    0.809582E+02
      500.000   9.9139   0.10000E+18   0.85325E-19    0.712088E+02    0.557837E-17    0.000000E+00
                                                      0.300343E-16    0.505821E+02    0.000000E+00
                                                      0.000000E+00    0.000000E+00    0.505821E+02
      600.000   9.8609   0.10000E+18  -0.21815E-19    0.506032E+02    0.135470E-16    0.000000E+00
                                                      0.403106E-16    0.360628E+02    0.000000E+00
                                                      0.000000E+00    0.000000E+00    0.360628E+02
      700.000   9.8057   0.99999E+17  -0.73162E-19    0.390465E+02   -0.156446E-16    0.000000E+00
                                                     -0.113800E-16    0.278958E+02    0.000000E+00
                                                      0.000000E+00    0.000000E+00    0.278958E+02
      800.000   9.7485   0.10000E+18  -0.82864E-19    0.317825E+02    0.157604E-16    0.000000E+00
                                                     -0.298984E-17    0.227484E+02    0.000000E+00
                                                      0.000000E+00    0.000000E+00    0.227484E+02
      900.000   9.6898   0.10000E+18  -0.43874E-20    0.267974E+02   -0.205348E-16    0.000000E+00
                                                      0.922443E-17    0.192118E+02    0.000000E+00
                                                      0.000000E+00    0.000000E+00    0.192118E+02
     1000.000   9.6295   0.10000E+18  -0.49763E-20    0.231316E+02    0.908537E-17    0.000000E+00
                                                     -0.129791E-17    0.166117E+02    0.000000E+00
                                                      0.000000E+00    0.000000E+00    0.166117E+02
      
     =============================================================================================
     Start solving iterative Boltzmann Transport Equation
     =============================================================================================

     Iteration number:         1

     =============================================================================================
       Temp     Fermi   Elec density  Population SR                  Elec mobility 
        [K]      [eV]     [cm^-3]      [e per cell]                    [cm^2/Vs]
     =============================================================================================

      100.000  10.0899   0.99999E+17  -0.11585E-15    0.926496E+04    0.238965E-13    0.000000E+00
                                                      0.702445E-14    0.644873E+04    0.000000E+00
                                                      0.000000E+00    0.000000E+00    0.644873E+04
      200.000  10.0541   0.10000E+18  -0.96864E-17    0.914266E+03   -0.107239E-14    0.000000E+00
                                                     -0.136098E-14    0.640975E+03    0.000000E+00
                                                      0.000000E+00    0.000000E+00    0.640975E+03
      300.000  10.0114   0.10000E+18  -0.16500E-17    0.310720E+03    0.494850E-15    0.000000E+00
                                                     -0.440520E-15    0.211392E+03    0.000000E+00
                                                      0.000000E+00    0.000000E+00    0.211392E+03
      400.000   9.9643   0.99999E+17  -0.87323E-18    0.160630E+03   -0.465287E-16    0.000000E+00
                                                     -0.142703E-16    0.109771E+03    0.000000E+00
                                                      0.000000E+00    0.000000E+00    0.109771E+03
      500.000   9.9139   0.10000E+18  -0.97238E-19    0.102501E+03   -0.387386E-16    0.000000E+00
                                                     -0.345957E-16    0.709631E+02    0.000000E+00
                                                      0.000000E+00    0.000000E+00    0.709631E+02
      600.000   9.8609   0.10000E+18  -0.44436E-20    0.741618E+02   -0.238028E-16    0.000000E+00
                                                     -0.382421E-18    0.519511E+02    0.000000E+00
                                                      0.000000E+00    0.000000E+00    0.519511E+02
      700.000   9.8057   0.99999E+17   0.34917E-18    0.580887E+02    0.693924E-16    0.000000E+00
                                                     -0.213462E-16    0.410584E+02    0.000000E+00
                                                      0.000000E+00    0.000000E+00    0.410584E+02
      800.000   9.7485   0.10000E+18  -0.32240E-19    0.478864E+02    0.182172E-16    0.000000E+00
                                                      0.569228E-16    0.340759E+02    0.000000E+00
                                                      0.000000E+00    0.000000E+00    0.340759E+02
      900.000   9.6898   0.10000E+18  -0.89865E-19    0.408100E+02   -0.347654E-16    0.000000E+00
                                                     -0.200249E-16    0.291934E+02    0.000000E+00
                                                      0.000000E+00    0.000000E+00    0.291934E+02
     1000.000   9.6295   0.10000E+18   0.70754E-19    0.355441E+02    0.546977E-17    0.000000E+00
                                                     -0.241041E-17    0.255366E+02    0.000000E+00
                                                      0.000000E+00    0.000000E+00    0.255366E+02

                                                      0.926496E+04    Max error
     Iteration number:         2

     =============================================================================================
       Temp     Fermi   Elec density  Population SR                  Elec mobility 
        [K]      [eV]     [cm^-3]      [e per cell]                    [cm^2/Vs]
     =============================================================================================

      100.000  10.0899   0.99999E+17  -0.10050E-15    0.991484E+04    0.172960E-13    0.000000E+00
                                                     -0.116769E-13    0.677600E+04    0.000000E+00
                                                      0.000000E+00    0.000000E+00    0.677600E+04
      200.000  10.0541   0.10000E+18  -0.41721E-18    0.101475E+04    0.229751E-14    0.000000E+00
                                                      0.341133E-14    0.693137E+03    0.000000E+00
                                                      0.000000E+00    0.000000E+00    0.693137E+03
      300.000  10.0114   0.10000E+18   0.17264E-17    0.348300E+03   -0.317670E-15    0.000000E+00
                                                      0.123402E-15    0.231508E+03    0.000000E+00
                                                      0.000000E+00    0.000000E+00    0.231508E+03
      400.000   9.9643   0.99999E+17   0.44052E-18    0.181828E+03   -0.873954E-16    0.000000E+00
                                                      0.982247E-16    0.122099E+03    0.000000E+00
                                                      0.000000E+00    0.000000E+00    0.122099E+03
      500.000   9.9139   0.10000E+18  -0.32155E-18    0.117188E+03   -0.664595E-16    0.000000E+00
                                                      0.150699E-15    0.801643E+02    0.000000E+00
                                                      0.000000E+00    0.000000E+00    0.801643E+02
      600.000   9.8609   0.10000E+18  -0.27220E-18    0.856178E+02   -0.136165E-16    0.000000E+00
                                                     -0.713389E-16    0.595392E+02    0.000000E+00
                                                      0.000000E+00    0.000000E+00    0.595392E+02
      700.000   9.8057   0.99999E+17  -0.23538E-19    0.676829E+02    0.510361E-16    0.000000E+00
                                                     -0.568767E-16    0.476700E+02    0.000000E+00
                                                      0.000000E+00    0.000000E+00    0.476700E+02
      800.000   9.7485   0.10000E+18   0.10606E-18    0.562687E+02    0.204422E-16    0.000000E+00
                                                      0.101052E-16    0.400154E+02    0.000000E+00
                                                      0.000000E+00    0.000000E+00    0.400154E+02
      900.000   9.6898   0.10000E+18  -0.11813E-18    0.483152E+02    0.137208E-16    0.000000E+00
                                                      0.235478E-16    0.346174E+02    0.000000E+00
                                                      0.000000E+00    0.000000E+00    0.346174E+02
     1000.000   9.6295   0.10000E+18   0.11321E-18    0.423567E+02   -0.101052E-16    0.000000E+00
                                                      0.331894E-16    0.305310E+02    0.000000E+00
                                                      0.000000E+00    0.000000E+00    0.305310E+02

                                                      0.649883E+03    Max error
     Iteration number:         3

     =============================================================================================
       Temp     Fermi   Elec density  Population SR                  Elec mobility 
        [K]      [eV]     [cm^-3]      [e per cell]                    [cm^2/Vs]
     =============================================================================================

      100.000  10.0899   0.99999E+17  -0.54718E-16    0.100693E+05    0.364370E-13    0.000000E+00
                                                     -0.118667E-13    0.681695E+04    0.000000E+00
                                                      0.000000E+00    0.000000E+00    0.681695E+04
      200.000  10.0541   0.10000E+18  -0.20948E-16    0.104852E+04   -0.147413E-14    0.000000E+00
                                                      0.647886E-16    0.706487E+03    0.000000E+00
                                                      0.000000E+00    0.000000E+00    0.706487E+03
      300.000  10.0114   0.10000E+18  -0.38374E-18    0.364008E+03   -0.254388E-15    0.000000E+00
                                                      0.291722E-15    0.238806E+03    0.000000E+00
                                                      0.000000E+00    0.000000E+00    0.238806E+03
      400.000   9.9643   0.99999E+17  -0.28982E-18    0.191335E+03   -0.590308E-15    0.000000E+00
                                                      0.774915E-17    0.127219E+03    0.000000E+00
                                                      0.000000E+00    0.000000E+00    0.127219E+03
      500.000   9.9139   0.10000E+18   0.82536E-19    0.124082E+03   -0.247210E-15    0.000000E+00
                                                      0.767355E-16    0.843209E+02    0.000000E+00
                                                      0.000000E+00    0.000000E+00    0.843209E+02
      600.000   9.8609   0.10000E+18   0.40786E-18    0.912182E+02    0.315207E-17    0.000000E+00
                                                      0.725325E-16    0.631992E+02    0.000000E+00
                                                      0.000000E+00    0.000000E+00    0.631992E+02
      700.000   9.8057   0.99999E+17   0.49664E-19    0.725523E+02    0.716174E-16    0.000000E+00
                                                     -0.714320E-16    0.510346E+02    0.000000E+00
                                                      0.000000E+00    0.000000E+00    0.510346E+02
      800.000   9.7485   0.10000E+18   0.95159E-20    0.606673E+02   -0.172437E-16    0.000000E+00
                                                     -0.588697E-17    0.431727E+02    0.000000E+00
                                                      0.000000E+00    0.000000E+00    0.431727E+02
      900.000   9.6898   0.10000E+18   0.55481E-19    0.523681E+02    0.259582E-16    0.000000E+00
                                                      0.339311E-16    0.376040E+02    0.000000E+00
                                                      0.000000E+00    0.000000E+00    0.376040E+02
     1000.000   9.6295   0.10000E+18  -0.36581E-19    0.461255E+02   -0.355071E-16    0.000000E+00
                                                      0.135354E-16    0.333597E+02    0.000000E+00
                                                      0.000000E+00    0.000000E+00    0.333597E+02

                                                      0.154414E+03    Max error
     Iteration number:         4

     =============================================================================================
       Temp     Fermi   Elec density  Population SR                  Elec mobility 
        [K]      [eV]     [cm^-3]      [e per cell]                    [cm^2/Vs]
     =============================================================================================

      100.000  10.0899   0.99999E+17   0.27835E-15    0.101317E+05   -0.424319E-13    0.000000E+00
                                                     -0.120555E-13    0.683594E+04    0.000000E+00
                                                      0.000000E+00    0.000000E+00    0.683594E+04
      200.000  10.0541   0.10000E+18  -0.29972E-17    0.106480E+04    0.174107E-14    0.000000E+00
                                                      0.653659E-15    0.712368E+03    0.000000E+00
                                                      0.000000E+00    0.000000E+00    0.712368E+03
      300.000  10.0114   0.10000E+18  -0.58097E-18    0.371068E+03   -0.113519E-15    0.000000E+00
                                                     -0.749089E-16    0.241778E+03    0.000000E+00
                                                      0.000000E+00    0.000000E+00    0.241778E+03
      400.000   9.9643   0.99999E+17   0.17636E-17    0.195684E+03   -0.188665E-15    0.000000E+00
                                                     -0.263600E-15    0.129423E+03    0.000000E+00
                                                      0.000000E+00    0.000000E+00    0.129423E+03
      500.000   9.9139   0.10000E+18   0.26225E-18    0.127349E+03   -0.487582E-16    0.000000E+00
                                                      0.322584E-15    0.862361E+02    0.000000E+00
                                                      0.000000E+00    0.000000E+00    0.862361E+02
      600.000   9.8609   0.10000E+18  -0.51559E-18    0.939775E+02   -0.684765E-16    0.000000E+00
                                                     -0.556248E-17    0.649925E+02    0.000000E+00
                                                      0.000000E+00    0.000000E+00    0.649925E+02
      700.000   9.8057   0.99999E+17  -0.53231E-19    0.750428E+02   -0.107959E-15    0.000000E+00
                                                      0.811200E-18    0.527709E+02    0.000000E+00
                                                      0.000000E+00    0.000000E+00    0.527709E+02
      800.000   9.7485   0.10000E+18   0.78748E-19    0.629935E+02    0.419505E-16    0.000000E+00
                                                     -0.709218E-17    0.448725E+02    0.000000E+00
                                                      0.000000E+00    0.000000E+00    0.448725E+02
      900.000   9.6898   0.10000E+18  -0.71389E-19    0.545738E+02    0.352290E-17    0.000000E+00
                                                     -0.461685E-16    0.392676E+02    0.000000E+00
                                                      0.000000E+00    0.000000E+00    0.392676E+02
     1000.000   9.6295   0.10000E+18   0.13817E-19    0.482262E+02   -0.324478E-17    0.000000E+00
                                                     -0.189124E-16    0.349790E+02    0.000000E+00
                                                      0.000000E+00    0.000000E+00    0.349790E+02

                                                      0.624927E+02    Max error
     Iteration number:         5

     =============================================================================================
       Temp     Fermi   Elec density  Population SR                  Elec mobility 
        [K]      [eV]     [cm^-3]      [e per cell]                    [cm^2/Vs]
     =============================================================================================

      100.000  10.0899   0.99999E+17  -0.17807E-15    0.101498E+05    0.666126E-14    0.000000E+00
                                                     -0.123419E-13    0.683915E+04    0.000000E+00
                                                      0.000000E+00    0.000000E+00    0.683915E+04
      200.000  10.0541   0.10000E+18  -0.16142E-16    0.107080E+04    0.246640E-14    0.000000E+00
                                                     -0.113139E-14    0.714074E+03    0.000000E+00
                                                      0.000000E+00    0.000000E+00    0.714074E+03
      300.000  10.0114   0.10000E+18   0.36327E-19    0.374106E+03   -0.539836E-16    0.000000E+00
                                                      0.213844E-15    0.242909E+03    0.000000E+00
                                                      0.000000E+00    0.000000E+00    0.242909E+03
      400.000   9.9643   0.99999E+17  -0.94718E-18    0.197663E+03   -0.107903E-15    0.000000E+00
                                                      0.223909E-15    0.130364E+03    0.000000E+00
                                                      0.000000E+00    0.000000E+00    0.130364E+03
      500.000   9.9139   0.10000E+18  -0.81700E-19    0.128900E+03   -0.101002E-15    0.000000E+00
                                                     -0.215950E-16    0.871216E+02    0.000000E+00
                                                      0.000000E+00    0.000000E+00    0.871216E+02
      600.000   9.8609   0.10000E+18  -0.20702E-18    0.953424E+02    0.139375E-15    0.000000E+00
                                                     -0.126836E-15    0.658772E+02    0.000000E+00
                                                      0.000000E+00    0.000000E+00    0.658772E+02
      700.000   9.8057   0.99999E+17  -0.11806E-18    0.763229E+02   -0.218259E-15    0.000000E+00
                                                     -0.383814E-16    0.536740E+02    0.000000E+00
                                                      0.000000E+00    0.000000E+00    0.536740E+02
      800.000   9.7485   0.10000E+18  -0.37375E-19    0.642305E+02    0.611874E-16    0.000000E+00
                                                      0.120057E-16    0.457949E+02    0.000000E+00
                                                      0.000000E+00    0.000000E+00    0.457949E+02
      900.000   9.6898   0.10000E+18   0.80812E-19    0.557808E+02    0.127937E-16    0.000000E+00
                                                      0.436654E-16    0.402010E+02    0.000000E+00
                                                      0.000000E+00    0.000000E+00    0.402010E+02
     1000.000   9.6295   0.10000E+18   0.16067E-18    0.494032E+02   -0.259582E-17    0.000000E+00
                                                     -0.189124E-16    0.359118E+02    0.000000E+00
                                                      0.000000E+00    0.000000E+00    0.359118E+02

                                                      0.180768E+02    Max error
     Iteration number:         6

     =============================================================================================
       Temp     Fermi   Elec density  Population SR                  Elec mobility 
        [K]      [eV]     [cm^-3]      [e per cell]                    [cm^2/Vs]
     =============================================================================================

      100.000  10.0899   0.99999E+17  -0.10617E-16    0.101563E+05    0.410559E-15    0.000000E+00
                                                     -0.569602E-15    0.684031E+04    0.000000E+00
                                                      0.000000E+00    0.000000E+00    0.684031E+04
      200.000  10.0541   0.10000E+18   0.12928E-16    0.107350E+04   -0.274222E-14    0.000000E+00
                                                      0.284983E-15    0.714757E+03    0.000000E+00
                                                      0.000000E+00    0.000000E+00    0.714757E+03
      300.000  10.0114   0.10000E+18  -0.82523E-18    0.375455E+03   -0.792513E-15    0.000000E+00
                                                      0.593952E-15    0.243362E+03    0.000000E+00
                                                      0.000000E+00    0.000000E+00    0.243362E+03
      400.000   9.9643   0.99999E+17   0.44169E-18    0.198568E+03    0.216477E-15    0.000000E+00
                                                     -0.167187E-16    0.130770E+03    0.000000E+00
                                                      0.000000E+00    0.000000E+00    0.130770E+03
      500.000   9.9139   0.10000E+18  -0.31229E-18    0.129639E+03    0.292315E-15    0.000000E+00
                                                     -0.149334E-15    0.875341E+02    0.000000E+00
                                                      0.000000E+00    0.000000E+00    0.875341E+02
      600.000   9.8609   0.10000E+18   0.29263E-18    0.960200E+02    0.126767E-15    0.000000E+00
                                                      0.119257E-15    0.663168E+02    0.000000E+00
                                                      0.000000E+00    0.000000E+00    0.663168E+02
      700.000   9.8057   0.99999E+17  -0.70072E-19    0.769837E+02   -0.945164E-16    0.000000E+00
                                                      0.369907E-16    0.541470E+02    0.000000E+00
                                                      0.000000E+00    0.000000E+00    0.541470E+02
      800.000   9.7485   0.10000E+18   0.21811E-19    0.648913E+02   -0.936353E-17    0.000000E+00
                                                      0.370833E-16    0.462987E+02    0.000000E+00
                                                      0.000000E+00    0.000000E+00    0.462987E+02
      900.000   9.6898   0.10000E+18  -0.18529E-19    0.564443E+02    0.233624E-16    0.000000E+00
                                                      0.639684E-17    0.407278E+02    0.000000E+00
                                                      0.000000E+00    0.000000E+00    0.407278E+02
     1000.000   9.6295   0.10000E+18  -0.63183E-19    0.500657E+02   -0.209520E-16    0.000000E+00
                                                     -0.242895E-16    0.364519E+02    0.000000E+00
                                                      0.000000E+00    0.000000E+00    0.364519E+02

                                                      0.643165E+01    Max error
     Iteration number:         7

     =============================================================================================
       Temp     Fermi   Elec density  Population SR                  Elec mobility 
        [K]      [eV]     [cm^-3]      [e per cell]                    [cm^2/Vs]
     =============================================================================================

      100.000  10.0899   0.99999E+17  -0.24780E-16    0.101583E+05    0.543952E-13    0.000000E+00
                                                     -0.125318E-13    0.684055E+04    0.000000E+00
                                                      0.000000E+00    0.000000E+00    0.684055E+04
      200.000  10.0541   0.10000E+18   0.39827E-17    0.107455E+04    0.655135E-16    0.000000E+00
                                                      0.260811E-15    0.714970E+03    0.000000E+00
                                                      0.000000E+00    0.000000E+00    0.714970E+03
      300.000  10.0114   0.10000E+18  -0.12233E-18    0.376042E+03    0.703907E-15    0.000000E+00
                                                      0.528585E-15    0.243537E+03    0.000000E+00
                                                      0.000000E+00    0.000000E+00    0.243537E+03
      400.000   9.9643   0.99999E+17   0.77135E-18    0.198982E+03   -0.752187E-16    0.000000E+00
                                                     -0.550552E-16    0.130946E+03    0.000000E+00
                                                      0.000000E+00    0.000000E+00    0.130946E+03
      500.000   9.9139   0.10000E+18  -0.36839E-18    0.129991E+03   -0.324386E-15    0.000000E+00
                                                      0.378709E-16    0.877268E+02    0.000000E+00
                                                      0.000000E+00    0.000000E+00    0.877268E+02
      600.000   9.8609   0.10000E+18  -0.27482E-18    0.963572E+02   -0.118550E-16    0.000000E+00
                                                      0.229568E-16    0.665363E+02    0.000000E+00
                                                      0.000000E+00    0.000000E+00    0.665363E+02
      700.000   9.8057   0.99999E+17  -0.22190E-18    0.773261E+02    0.697864E-16    0.000000E+00
                                                      0.125574E-15    0.543961E+02    0.000000E+00
                                                      0.000000E+00    0.000000E+00    0.543961E+02
      800.000   9.7485   0.10000E+18   0.19307E-18    0.652456E+02    0.152969E-16    0.000000E+00
                                                      0.358781E-16    0.465752E+02    0.000000E+00
                                                      0.000000E+00    0.000000E+00    0.465752E+02
      900.000   9.6898   0.10000E+18  -0.43225E-19    0.568104E+02   -0.535851E-16    0.000000E+00
                                                     -0.368977E-16    0.410263E+02    0.000000E+00
                                                      0.000000E+00    0.000000E+00    0.410263E+02
     1000.000   9.6295   0.10000E+18   0.80998E-20    0.504398E+02   -0.287394E-16    0.000000E+00
                                                     -0.229916E-16    0.367659E+02    0.000000E+00
                                                      0.000000E+00    0.000000E+00    0.367659E+02

                                                      0.201683E+01    Max error
     Iteration number:         8

     =============================================================================================
       Temp     Fermi   Elec density  Population SR                  Elec mobility 
        [K]      [eV]     [cm^-3]      [e per cell]                    [cm^2/Vs]
     =============================================================================================

      100.000  10.0899   0.99999E+17   0.65327E-16    0.101590E+05   -0.177273E-13    0.000000E+00
                                                      0.124365E-13    0.684062E+04    0.000000E+00
                                                      0.000000E+00    0.000000E+00    0.684062E+04
      200.000  10.0541   0.10000E+18   0.89664E-18    0.107500E+04   -0.555740E-15    0.000000E+00
                                                      0.291165E-14    0.715051E+03    0.000000E+00
                                                      0.000000E+00    0.000000E+00    0.715051E+03
      300.000  10.0114   0.10000E+18  -0.20906E-17    0.376301E+03    0.363014E-15    0.000000E+00
                                                     -0.442322E-15    0.243606E+03    0.000000E+00
                                                      0.000000E+00    0.000000E+00    0.243606E+03
      400.000   9.9643   0.99999E+17  -0.21323E-18    0.199172E+03    0.266084E-15    0.000000E+00
                                                     -0.371601E-15    0.131021E+03    0.000000E+00
                                                      0.000000E+00    0.000000E+00    0.131021E+03
      500.000   9.9139   0.10000E+18   0.32364E-18    0.130160E+03   -0.133533E-15    0.000000E+00
                                                      0.116012E-15    0.878172E+02    0.000000E+00
                                                      0.000000E+00    0.000000E+00    0.878172E+02
      600.000   9.8609   0.10000E+18  -0.75307E-20    0.965255E+02   -0.102558E-15    0.000000E+00
                                                      0.364922E-16    0.666464E+02    0.000000E+00
                                                      0.000000E+00    0.000000E+00    0.666464E+02
      700.000   9.8057   0.99999E+17  -0.54733E-19    0.775039E+02    0.106221E-15    0.000000E+00
                                                      0.252167E-16    0.545278E+02    0.000000E+00
                                                      0.000000E+00    0.000000E+00    0.545278E+02
      800.000   9.7485   0.10000E+18   0.10272E-18    0.654362E+02   -0.343020E-17    0.000000E+00
                                                      0.430166E-16    0.467275E+02    0.000000E+00
                                                      0.000000E+00    0.000000E+00    0.467275E+02
      900.000   9.6898   0.10000E+18  -0.12335E-19    0.570130E+02    0.707361E-16    0.000000E+00
                                                      0.201176E-16    0.411962E+02    0.000000E+00
                                                      0.000000E+00    0.000000E+00    0.411962E+02
     1000.000   9.6295   0.10000E+18  -0.30626E-19    0.506517E+02   -0.556247E-18    0.000000E+00
                                                     -0.493206E-16    0.369489E+02    0.000000E+00
                                                      0.000000E+00    0.000000E+00    0.369489E+02

                                                      0.682652E+00    Max error
     Iteration number:         9

     =============================================================================================
       Temp     Fermi   Elec density  Population SR                  Elec mobility 
        [K]      [eV]     [cm^-3]      [e per cell]                    [cm^2/Vs]
     =============================================================================================

      100.000  10.0899   0.99999E+17   0.37226E-16    0.101592E+05    0.671185E-13    0.000000E+00
                                                     -0.950450E-15    0.684064E+04    0.000000E+00
                                                      0.000000E+00    0.000000E+00    0.684064E+04
      200.000  10.0541   0.10000E+18  -0.12307E-16    0.107519E+04   -0.102624E-14    0.000000E+00
                                                     -0.312695E-14    0.715077E+03    0.000000E+00
                                                      0.000000E+00    0.000000E+00    0.715077E+03
      300.000  10.0114   0.10000E+18   0.16509E-17    0.376414E+03    0.210773E-15    0.000000E+00
                                                      0.115833E-15    0.243634E+03    0.000000E+00
                                                      0.000000E+00    0.000000E+00    0.243634E+03
      400.000   9.9643   0.99999E+17   0.48509E-18    0.199258E+03    0.289881E-16    0.000000E+00
                                                      0.157038E-15    0.131054E+03    0.000000E+00
                                                      0.000000E+00    0.000000E+00    0.131054E+03
      500.000   9.9139   0.10000E+18   0.37025E-19    0.130240E+03   -0.159674E-15    0.000000E+00
                                                     -0.125279E-15    0.878597E+02    0.000000E+00
                                                      0.000000E+00    0.000000E+00    0.878597E+02
      600.000   9.8609   0.10000E+18  -0.27403E-18    0.966097E+02    0.124229E-16    0.000000E+00
                                                      0.162703E-15    0.667017E+02    0.000000E+00
                                                      0.000000E+00    0.000000E+00    0.667017E+02
      700.000   9.8057   0.99999E+17  -0.14593E-18    0.775965E+02   -0.172902E-16    0.000000E+00
                                                     -0.347194E-16    0.545976E+02    0.000000E+00
                                                      0.000000E+00    0.000000E+00    0.545976E+02
      800.000   9.7485   0.10000E+18   0.15956E-18    0.655390E+02    0.205349E-16    0.000000E+00
                                                      0.164093E-16    0.468117E+02    0.000000E+00
                                                      0.000000E+00    0.000000E+00    0.468117E+02
      900.000   9.6898   0.10000E+18   0.65883E-19    0.571255E+02    0.862183E-17    0.000000E+00
                                                     -0.287394E-17    0.412930E+02    0.000000E+00
                                                      0.000000E+00    0.000000E+00    0.412930E+02
     1000.000   9.6295   0.10000E+18  -0.86133E-19    0.507720E+02   -0.563664E-16    0.000000E+00
                                                      0.680476E-16    0.370558E+02    0.000000E+00
                                                      0.000000E+00    0.000000E+00    0.370558E+02

                                                      0.220792E+00    Max error
     Iteration number:        10

     =============================================================================================
       Temp     Fermi   Elec density  Population SR                  Elec mobility 
        [K]      [eV]     [cm^-3]      [e per cell]                    [cm^2/Vs]
     =============================================================================================

      100.000  10.0899   0.99999E+17  -0.30052E-15    0.101593E+05   -0.167794E-13    0.000000E+00
                                                     -0.758728E-15    0.684064E+04    0.000000E+00
                                                      0.000000E+00    0.000000E+00    0.684064E+04
      200.000  10.0541   0.10000E+18   0.50369E-17    0.107526E+04   -0.331008E-14    0.000000E+00
                                                     -0.704898E-15    0.715087E+03    0.000000E+00
                                                      0.000000E+00    0.000000E+00    0.715087E+03
      300.000  10.0114   0.10000E+18   0.12718E-17    0.376464E+03   -0.182705E-15    0.000000E+00
                                                     -0.464983E-15    0.243644E+03    0.000000E+00
                                                      0.000000E+00    0.000000E+00    0.243644E+03
      400.000   9.9643   0.99999E+17  -0.27652E-18    0.199298E+03    0.244923E-15    0.000000E+00
                                                     -0.124714E-15    0.131068E+03    0.000000E+00
                                                      0.000000E+00    0.000000E+00    0.131068E+03
      500.000   9.9139   0.10000E+18   0.22467E-18    0.130279E+03    0.889874E-16    0.000000E+00
                                                     -0.736269E-16    0.878798E+02    0.000000E+00
                                                      0.000000E+00    0.000000E+00    0.878798E+02
      600.000   9.8609   0.10000E+18  -0.22662E-18    0.966518E+02    0.337226E-17    0.000000E+00
                                                     -0.475129E-18    0.667296E+02    0.000000E+00
                                                      0.000000E+00    0.000000E+00    0.667296E+02
      700.000   9.8057   0.99999E+17  -0.24520E-18    0.776449E+02   -0.472814E-17    0.000000E+00
                                                      0.682335E-16    0.546348E+02    0.000000E+00
                                                      0.000000E+00    0.000000E+00    0.546348E+02
      800.000   9.7485   0.10000E+18  -0.20660E-19    0.655945E+02    0.959530E-17    0.000000E+00
                                                     -0.580353E-16    0.468584E+02    0.000000E+00
                                                      0.000000E+00    0.000000E+00    0.468584E+02
      900.000   9.6898   0.10000E+18  -0.14294E-19    0.571880E+02    0.279051E-16    0.000000E+00
                                                     -0.381956E-16    0.413484E+02    0.000000E+00
                                                      0.000000E+00    0.000000E+00    0.413484E+02
     1000.000   9.6295   0.10000E+18  -0.22526E-19    0.508404E+02   -0.723122E-17    0.000000E+00
                                                     -0.298519E-16    0.371184E+02    0.000000E+00
                                                      0.000000E+00    0.000000E+00    0.371184E+02

                                                      0.769844E-01    Max error
     Iteration number:        11

     =============================================================================================
       Temp     Fermi   Elec density  Population SR                  Elec mobility 
        [K]      [eV]     [cm^-3]      [e per cell]                    [cm^2/Vs]
     =============================================================================================

      100.000  10.0899   0.99999E+17   0.12759E-15    0.101593E+05    0.292579E-15    0.000000E+00
                                                      0.426821E-17    0.684064E+04    0.000000E+00
                                                      0.000000E+00    0.000000E+00    0.684064E+04
      200.000  10.0541   0.10000E+18  -0.48821E-17    0.107529E+04    0.548897E-15    0.000000E+00
                                                     -0.349529E-14    0.715090E+03    0.000000E+00
                                                      0.000000E+00    0.000000E+00    0.715090E+03
      300.000  10.0114   0.10000E+18  -0.16883E-17    0.376486E+03   -0.647312E-15    0.000000E+00
                                                     -0.368278E-15    0.243649E+03    0.000000E+00
                                                      0.000000E+00    0.000000E+00    0.243649E+03
      400.000   9.9643   0.99999E+17   0.25343E-18    0.199316E+03    0.673518E-16    0.000000E+00
                                                     -0.169026E-15    0.131075E+03    0.000000E+00
                                                      0.000000E+00    0.000000E+00    0.131075E+03
      500.000   9.9139   0.10000E+18  -0.24156E-18    0.130297E+03   -0.163368E-16    0.000000E+00
                                                      0.102123E-16    0.878892E+02    0.000000E+00
                                                      0.000000E+00    0.000000E+00    0.878892E+02
      600.000   9.8609   0.10000E+18  -0.13655E-18    0.966729E+02    0.129907E-16    0.000000E+00
                                                     -0.912016E-16    0.667437E+02    0.000000E+00
                                                      0.000000E+00    0.000000E+00    0.667437E+02
      700.000   9.8057   0.99999E+17   0.43774E-18    0.776701E+02    0.492978E-16    0.000000E+00
                                                     -0.222964E-16    0.546546E+02    0.000000E+00
                                                      0.000000E+00    0.000000E+00    0.546546E+02
      800.000   9.7485   0.10000E+18   0.53165E-19    0.656246E+02    0.784775E-16    0.000000E+00
                                                     -0.268854E-16    0.468843E+02    0.000000E+00
                                                      0.000000E+00    0.000000E+00    0.468843E+02
      900.000   9.6898   0.10000E+18   0.92750E-19    0.572228E+02    0.203957E-16    0.000000E+00
                                                      0.386592E-16    0.413800E+02    0.000000E+00
                                                      0.000000E+00    0.000000E+00    0.413800E+02
     1000.000   9.6295   0.10000E+18   0.40896E-19    0.508794E+02   -0.318915E-16    0.000000E+00
                                                      0.300374E-16    0.371551E+02    0.000000E+00
                                                      0.000000E+00    0.000000E+00    0.371551E+02

                                                      0.389695E-01    Max error
     Iteration number:        12

     =============================================================================================
       Temp     Fermi   Elec density  Population SR                  Elec mobility 
        [K]      [eV]     [cm^-3]      [e per cell]                    [cm^2/Vs]
     =============================================================================================

      100.000  10.0899   0.99999E+17   0.17488E-16    0.101593E+05   -0.638906E-14    0.000000E+00
                                                      0.122479E-13    0.684064E+04    0.000000E+00
                                                      0.000000E+00    0.000000E+00    0.684064E+04
      200.000  10.0541   0.10000E+18   0.11324E-18    0.107531E+04    0.135913E-15    0.000000E+00
                                                     -0.322599E-14    0.715091E+03    0.000000E+00
                                                      0.000000E+00    0.000000E+00    0.715091E+03
      300.000  10.0114   0.10000E+18   0.18400E-17    0.376495E+03   -0.449581E-15    0.000000E+00
                                                      0.156331E-16    0.243650E+03    0.000000E+00
                                                      0.000000E+00    0.000000E+00    0.243650E+03
      400.000   9.9643   0.99999E+17  -0.14657E-18    0.199325E+03   -0.645025E-16    0.000000E+00
                                                      0.113644E-16    0.131077E+03    0.000000E+00
                                                      0.000000E+00    0.000000E+00    0.131077E+03
      500.000   9.9139   0.10000E+18   0.98037E-19    0.130306E+03   -0.109925E-15    0.000000E+00
                                                     -0.162038E-15    0.878937E+02    0.000000E+00
                                                      0.000000E+00    0.000000E+00    0.878937E+02
      600.000   9.8609   0.10000E+18   0.87009E-19    0.966835E+02    0.346033E-16    0.000000E+00
                                                      0.834373E-16    0.667509E+02    0.000000E+00
                                                      0.000000E+00    0.000000E+00    0.667509E+02
      700.000   9.8057   0.99999E+17   0.36958E-19    0.776834E+02    0.353220E-16    0.000000E+00
                                                     -0.991982E-17    0.546652E+02    0.000000E+00
                                                      0.000000E+00    0.000000E+00    0.546652E+02
      800.000   9.7485   0.10000E+18   0.10512E-18    0.656409E+02    0.911785E-16    0.000000E+00
                                                      0.169656E-16    0.468987E+02    0.000000E+00
                                                      0.000000E+00    0.000000E+00    0.468987E+02
      900.000   9.6898   0.10000E+18   0.35072E-19    0.572423E+02    0.183562E-16    0.000000E+00
                                                     -0.305936E-17    0.413982E+02    0.000000E+00
                                                      0.000000E+00    0.000000E+00    0.413982E+02
     1000.000   9.6295   0.10000E+18  -0.18502E-19    0.509016E+02    0.630414E-17    0.000000E+00
                                                      0.133499E-16    0.371766E+02    0.000000E+00
                                                      0.000000E+00    0.000000E+00    0.371766E+02

                                                      0.222270E-01    Max error
     Iteration number:        13

     =============================================================================================
       Temp     Fermi   Elec density  Population SR                  Elec mobility 
        [K]      [eV]     [cm^-3]      [e per cell]                    [cm^2/Vs]
     =============================================================================================

      100.000  10.0899   0.99999E+17  -0.40758E-15    0.101593E+05   -0.254733E-13    0.000000E+00
                                                      0.114888E-13    0.684064E+04    0.000000E+00
                                                      0.000000E+00    0.000000E+00    0.684064E+04
      200.000  10.0541   0.10000E+18  -0.26503E-16    0.107531E+04    0.298458E-16    0.000000E+00
                                                     -0.440254E-14    0.715091E+03    0.000000E+00
                                                      0.000000E+00    0.000000E+00    0.715091E+03
      300.000  10.0114   0.10000E+18   0.19563E-17    0.376500E+03    0.286497E-15    0.000000E+00
                                                     -0.553210E-15    0.243651E+03    0.000000E+00
                                                      0.000000E+00    0.000000E+00    0.243651E+03
      400.000   9.9643   0.99999E+17   0.68966E-18    0.199329E+03   -0.316755E-15    0.000000E+00
                                                      0.289620E-15    0.131078E+03    0.000000E+00
                                                      0.000000E+00    0.000000E+00    0.131078E+03
      500.000   9.9139   0.10000E+18   0.23551E-19    0.130310E+03    0.246642E-15    0.000000E+00
                                                      0.521884E-16    0.878958E+02    0.000000E+00
                                                      0.000000E+00    0.000000E+00    0.878958E+02
      600.000   9.8609   0.10000E+18  -0.10183E-18    0.966888E+02   -0.106371E-15    0.000000E+00
                                                     -0.152146E-15    0.667545E+02    0.000000E+00
                                                      0.000000E+00    0.000000E+00    0.667545E+02
      700.000   9.8057   0.99999E+17  -0.17993E-19    0.776903E+02    0.935430E-16    0.000000E+00
                                                     -0.451491E-16    0.546709E+02    0.000000E+00
                                                      0.000000E+00    0.000000E+00    0.546709E+02
      800.000   9.7485   0.10000E+18   0.98984E-19    0.656498E+02   -0.299447E-16    0.000000E+00
                                                     -0.384739E-16    0.469067E+02    0.000000E+00
                                                      0.000000E+00    0.000000E+00    0.469067E+02
      900.000   9.6898   0.10000E+18  -0.13913E-18    0.572531E+02   -0.105687E-16    0.000000E+00
                                                      0.282759E-16    0.414086E+02    0.000000E+00
                                                      0.000000E+00    0.000000E+00    0.414086E+02
     1000.000   9.6295   0.10000E+18  -0.90791E-20    0.509143E+02    0.181707E-16    0.000000E+00
                                                      0.213228E-16    0.371893E+02    0.000000E+00
                                                      0.000000E+00    0.000000E+00    0.371893E+02

                                                      0.126908E-01    Max error
     Iteration number:        14

     =============================================================================================
       Temp     Fermi   Elec density  Population SR                  Elec mobility 
        [K]      [eV]     [cm^-3]      [e per cell]                    [cm^2/Vs]
     =============================================================================================

      100.000  10.0899   0.99999E+17   0.18646E-15    0.101593E+05   -0.115773E-13    0.000000E+00
                                                     -0.285173E-15    0.684064E+04    0.000000E+00
                                                      0.000000E+00    0.000000E+00    0.684064E+04
      200.000  10.0541   0.10000E+18   0.20920E-17    0.107531E+04    0.180804E-14    0.000000E+00
                                                     -0.352073E-16    0.715092E+03    0.000000E+00
                                                      0.000000E+00    0.000000E+00    0.715092E+03
      300.000  10.0114   0.10000E+18   0.35450E-18    0.376501E+03   -0.121421E-15    0.000000E+00
                                                      0.217748E-15    0.243651E+03    0.000000E+00
                                                      0.000000E+00    0.000000E+00    0.243651E+03
      400.000   9.9643   0.99999E+17  -0.23037E-18    0.199330E+03    0.457263E-15    0.000000E+00
                                                      0.755192E-16    0.131079E+03    0.000000E+00
                                                      0.000000E+00    0.000000E+00    0.131079E+03
      500.000   9.9139   0.10000E+18   0.76175E-20    0.130312E+03    0.273660E-15    0.000000E+00
                                                      0.118057E-15    0.878968E+02    0.000000E+00
                                                      0.000000E+00    0.000000E+00    0.878968E+02
      600.000   9.8609   0.10000E+18  -0.18573E-18    0.966915E+02    0.661588E-16    0.000000E+00
                                                      0.106765E-15    0.667563E+02    0.000000E+00
                                                      0.000000E+00    0.000000E+00    0.667563E+02
      700.000   9.8057   0.99999E+17  -0.40838E-18    0.776940E+02    0.483707E-16    0.000000E+00
                                                     -0.885367E-17    0.546739E+02    0.000000E+00
                                                      0.000000E+00    0.000000E+00    0.546739E+02
      800.000   9.7485   0.10000E+18   0.20289E-18    0.656546E+02   -0.331432E-16    0.000000E+00
                                                      0.233625E-16    0.469112E+02    0.000000E+00
                                                      0.000000E+00    0.000000E+00    0.469112E+02
      900.000   9.6898   0.10000E+18  -0.15858E-18    0.572592E+02   -0.241040E-17    0.000000E+00
                                                     -0.235478E-16    0.414146E+02    0.000000E+00
                                                      0.000000E+00    0.000000E+00    0.414146E+02
     1000.000   9.6295   0.10000E+18  -0.93253E-19    0.509215E+02   -0.383811E-16    0.000000E+00
                                                      0.179853E-16    0.371967E+02    0.000000E+00
                                                      0.000000E+00    0.000000E+00    0.371967E+02

                                                      0.725208E-02    Max error
     Iteration number:        15

     =============================================================================================
       Temp     Fermi   Elec density  Population SR                  Elec mobility 
        [K]      [eV]     [cm^-3]      [e per cell]                    [cm^2/Vs]
     =============================================================================================

      100.000  10.0899   0.99999E+17  -0.11520E-15    0.101593E+05   -0.195212E-13    0.000000E+00
                                                     -0.241119E-13    0.684064E+04    0.000000E+00
                                                      0.000000E+00    0.000000E+00    0.684064E+04
      200.000  10.0541   0.10000E+18   0.14473E-16    0.107532E+04   -0.109276E-14    0.000000E+00
                                                     -0.891462E-15    0.715092E+03    0.000000E+00
                                                      0.000000E+00    0.000000E+00    0.715092E+03
      300.000  10.0114   0.10000E+18   0.38280E-18    0.376502E+03    0.616570E-15    0.000000E+00
                                                      0.307489E-15    0.243651E+03    0.000000E+00
                                                      0.000000E+00    0.000000E+00    0.243651E+03
      400.000   9.9643   0.99999E+17  -0.23264E-17    0.199331E+03   -0.137870E-15    0.000000E+00
                                                      0.312421E-17    0.131079E+03    0.000000E+00
                                                      0.000000E+00    0.000000E+00    0.131079E+03
      500.000   9.9139   0.10000E+18   0.26929E-18    0.130313E+03   -0.199263E-16    0.000000E+00
                                                     -0.106642E-16    0.878973E+02    0.000000E+00
                                                      0.000000E+00    0.000000E+00    0.878973E+02
      600.000   9.8609   0.10000E+18  -0.24248E-18    0.966929E+02   -0.550686E-16    0.000000E+00
                                                     -0.575485E-16    0.667573E+02    0.000000E+00
                                                      0.000000E+00    0.000000E+00    0.667573E+02
      700.000   9.8057   0.99999E+17   0.26979E-19    0.776959E+02    0.449869E-16    0.000000E+00
                                                     -0.504798E-16    0.546755E+02    0.000000E+00
                                                      0.000000E+00    0.000000E+00    0.546755E+02
      800.000   9.7485   0.10000E+18  -0.20617E-18    0.656573E+02    0.927082E-17    0.000000E+00
                                                      0.149816E-15    0.469137E+02    0.000000E+00
                                                      0.000000E+00    0.000000E+00    0.469137E+02
      900.000   9.6898   0.10000E+18   0.98997E-20    0.572626E+02    0.406987E-16    0.000000E+00
                                                     -0.213228E-17    0.414181E+02    0.000000E+00
                                                      0.000000E+00    0.000000E+00    0.414181E+02
     1000.000   9.6295   0.10000E+18  -0.64322E-19    0.509257E+02    0.793580E-16    0.000000E+00
                                                      0.370832E-17    0.372011E+02    0.000000E+00
                                                      0.000000E+00    0.000000E+00    0.372011E+02

                                                      0.414701E-02    Max error
     Iteration number:        16

     =============================================================================================
       Temp     Fermi   Elec density  Population SR                  Elec mobility 
        [K]      [eV]     [cm^-3]      [e per cell]                    [cm^2/Vs]
     =============================================================================================

      100.000  10.0899   0.99999E+17  -0.81452E-16    0.101593E+05   -0.244102E-13    0.000000E+00
                                                      0.132922E-13    0.684064E+04    0.000000E+00
                                                      0.000000E+00    0.000000E+00    0.684064E+04
      200.000  10.0541   0.10000E+18  -0.27912E-18    0.107532E+04   -0.138229E-14    0.000000E+00
                                                      0.154948E-14    0.715092E+03    0.000000E+00
                                                      0.000000E+00    0.000000E+00    0.715092E+03
      300.000  10.0114   0.10000E+18  -0.40219E-17    0.376503E+03    0.870807E-15    0.000000E+00
                                                      0.303762E-15    0.243651E+03    0.000000E+00
                                                      0.000000E+00    0.000000E+00    0.243651E+03
      400.000   9.9643   0.99999E+17   0.17861E-19    0.199332E+03    0.126019E-15    0.000000E+00
                                                     -0.544946E-16    0.131079E+03    0.000000E+00
                                                      0.000000E+00    0.000000E+00    0.131079E+03
      500.000   9.9139   0.10000E+18   0.94721E-18    0.130314E+03   -0.877532E-16    0.000000E+00
                                                     -0.862380E-16    0.878975E+02    0.000000E+00
                                                      0.000000E+00    0.000000E+00    0.878975E+02
      600.000   9.8609   0.10000E+18  -0.17605E-18    0.966936E+02   -0.119014E-16    0.000000E+00
                                                      0.790800E-16    0.667578E+02    0.000000E+00
                                                      0.000000E+00    0.000000E+00    0.667578E+02
      700.000   9.8057   0.99999E+17  -0.18342E-18    0.776969E+02   -0.158995E-16    0.000000E+00
                                                      0.843648E-17    0.546764E+02    0.000000E+00
                                                      0.000000E+00    0.000000E+00    0.546764E+02
      800.000   9.7485   0.10000E+18   0.13738E-18    0.656587E+02   -0.432484E-16    0.000000E+00
                                                      0.198396E-16    0.469151E+02    0.000000E+00
                                                      0.000000E+00    0.000000E+00    0.469151E+02
      900.000   9.6898   0.10000E+18  -0.52198E-19    0.572645E+02    0.155749E-16    0.000000E+00
                                                     -0.241040E-16    0.414201E+02    0.000000E+00
                                                      0.000000E+00    0.000000E+00    0.414201E+02
     1000.000   9.6295   0.10000E+18   0.22764E-19    0.509280E+02    0.218791E-16    0.000000E+00
                                                      0.107541E-16    0.372036E+02    0.000000E+00
                                                      0.000000E+00    0.000000E+00    0.372036E+02

                                                      0.237274E-02    Max error
     Iteration number:        17

     =============================================================================================
       Temp     Fermi   Elec density  Population SR                  Elec mobility 
        [K]      [eV]     [cm^-3]      [e per cell]                    [cm^2/Vs]
     =============================================================================================

      100.000  10.0899   0.99999E+17  -0.36327E-15    0.101593E+05    0.559873E-13    0.000000E+00
                                                     -0.759841E-15    0.684064E+04    0.000000E+00
                                                      0.000000E+00    0.000000E+00    0.684064E+04
      200.000  10.0541   0.10000E+18  -0.12040E-16    0.107532E+04    0.423643E-14    0.000000E+00
                                                      0.271930E-14    0.715092E+03    0.000000E+00
                                                      0.000000E+00    0.000000E+00    0.715092E+03
      300.000  10.0114   0.10000E+18  -0.20740E-17    0.376503E+03   -0.960629E-15    0.000000E+00
                                                     -0.497245E-15    0.243651E+03    0.000000E+00
                                                      0.000000E+00    0.000000E+00    0.243651E+03
      400.000   9.9643   0.99999E+17  -0.16762E-17    0.199332E+03    0.425868E-15    0.000000E+00
                                                      0.330633E-16    0.131079E+03    0.000000E+00
                                                      0.000000E+00    0.000000E+00    0.131079E+03
      500.000   9.9139   0.10000E+18   0.10123E-17    0.130314E+03   -0.909255E-16    0.000000E+00
                                                     -0.682441E-16    0.878976E+02    0.000000E+00
                                                      0.000000E+00    0.000000E+00    0.878976E+02
      600.000   9.8609   0.10000E+18  -0.20774E-18    0.966939E+02    0.354145E-16    0.000000E+00
                                                     -0.154475E-16    0.667580E+02    0.000000E+00
                                                      0.000000E+00    0.000000E+00    0.667580E+02
      700.000   9.8057   0.99999E+17   0.14519E-18    0.776974E+02    0.672137E-16    0.000000E+00
                                                      0.349511E-16    0.546769E+02    0.000000E+00
                                                      0.000000E+00    0.000000E+00    0.546769E+02
      800.000   9.7485   0.10000E+18  -0.37944E-19    0.656595E+02   -0.184489E-16    0.000000E+00
                                                      0.166875E-17    0.469158E+02    0.000000E+00
                                                      0.000000E+00    0.000000E+00    0.469158E+02
      900.000   9.6898   0.10000E+18  -0.92485E-19    0.572655E+02   -0.185416E-16    0.000000E+00
                                                      0.671205E-16    0.414212E+02    0.000000E+00
                                                      0.000000E+00    0.000000E+00    0.414212E+02
     1000.000   9.6295   0.10000E+18   0.23214E-19    0.509294E+02   -0.120520E-16    0.000000E+00
                                                      0.202103E-16    0.372051E+02    0.000000E+00
                                                      0.000000E+00    0.000000E+00    0.372051E+02

                                                      0.135820E-02    Max error
     Iteration number:        18

     =============================================================================================
       Temp     Fermi   Elec density  Population SR                  Elec mobility 
        [K]      [eV]     [cm^-3]      [e per cell]                    [cm^2/Vs]
     =============================================================================================

      100.000  10.0899   0.99999E+17  -0.15471E-15    0.101593E+05   -0.112838E-13    0.000000E+00
                                                      0.114898E-13    0.684064E+04    0.000000E+00
                                                      0.000000E+00    0.000000E+00    0.684064E+04
      200.000  10.0541   0.10000E+18  -0.41428E-17    0.107532E+04   -0.217185E-14    0.000000E+00
                                                      0.129253E-14    0.715092E+03    0.000000E+00
                                                      0.000000E+00    0.000000E+00    0.715092E+03
      300.000  10.0114   0.10000E+18  -0.10829E-17    0.376503E+03   -0.267586E-15    0.000000E+00
                                                      0.250396E-15    0.243651E+03    0.000000E+00
                                                      0.000000E+00    0.000000E+00    0.243651E+03
      400.000   9.9643   0.99999E+17   0.52631E-18    0.199332E+03   -0.175316E-15    0.000000E+00
                                                      0.106506E-17    0.131079E+03    0.000000E+00
                                                      0.000000E+00    0.000000E+00    0.131079E+03
      500.000   9.9139   0.10000E+18  -0.22830E-18    0.130314E+03    0.781059E-17    0.000000E+00
                                                      0.188706E-15    0.878977E+02    0.000000E+00
                                                      0.000000E+00    0.000000E+00    0.878977E+02
      600.000   9.8609   0.10000E+18   0.21086E-19    0.966941E+02   -0.688242E-16    0.000000E+00
                                                     -0.902629E-16    0.667581E+02    0.000000E+00
                                                      0.000000E+00    0.000000E+00    0.667581E+02
      700.000   9.8057   0.99999E+17  -0.20515E-18    0.776977E+02   -0.756734E-16    0.000000E+00
                                                      0.434340E-16    0.546771E+02    0.000000E+00
                                                      0.000000E+00    0.000000E+00    0.546771E+02
      800.000   9.7485   0.10000E+18   0.14885E-18    0.656599E+02   -0.666108E-16    0.000000E+00
                                                     -0.343020E-17    0.469163E+02    0.000000E+00
                                                      0.000000E+00    0.000000E+00    0.469163E+02
      900.000   9.6898   0.10000E+18   0.82559E-19    0.572661E+02    0.226207E-16    0.000000E+00
                                                     -0.154822E-16    0.414218E+02    0.000000E+00
                                                      0.000000E+00    0.000000E+00    0.414218E+02
     1000.000   9.6295   0.10000E+18  -0.16464E-19    0.509302E+02    0.202103E-16    0.000000E+00
                                                      0.142770E-16    0.372060E+02    0.000000E+00
                                                      0.000000E+00    0.000000E+00    0.372060E+02

                                                      0.777740E-03    Max error
     Iteration number:        19

     =============================================================================================
       Temp     Fermi   Elec density  Population SR                  Elec mobility 
        [K]      [eV]     [cm^-3]      [e per cell]                    [cm^2/Vs]
     =============================================================================================

      100.000  10.0899   0.99999E+17   0.47359E-16    0.101593E+05   -0.726710E-13    0.000000E+00
                                                      0.758172E-15    0.684064E+04    0.000000E+00
                                                      0.000000E+00    0.000000E+00    0.684064E+04
      200.000  10.0541   0.10000E+18   0.58727E-17    0.107532E+04   -0.122301E-14    0.000000E+00
[...]
                                                      0.000000E+00    0.000000E+00    0.667583E+02
      700.000   9.8057   0.99999E+17  -0.76193E-19    0.776980E+02    0.303852E-16    0.000000E+00
                                                     -0.141010E-15    0.546774E+02    0.000000E+00
                                                      0.000000E+00    0.000000E+00    0.546774E+02
      800.000   9.7485   0.10000E+18   0.13191E-18    0.656604E+02    0.209057E-16    0.000000E+00
                                                      0.216010E-16    0.469168E+02    0.000000E+00
                                                      0.000000E+00    0.000000E+00    0.469168E+02
      900.000   9.6898   0.10000E+18   0.75624E-19    0.572669E+02    0.412550E-16    0.000000E+00
                                                     -0.695309E-17    0.414227E+02    0.000000E+00
                                                      0.000000E+00    0.000000E+00    0.414227E+02
     1000.000   9.6295   0.10000E+18  -0.65274E-19    0.509312E+02   -0.107541E-16    0.000000E+00
                                                     -0.220645E-16    0.372073E+02    0.000000E+00
                                                      0.000000E+00    0.000000E+00    0.372073E+02

                                                      0.157930E-04    Max error
     Iteration number:        26

     =============================================================================================
       Temp     Fermi   Elec density  Population SR                  Elec mobility 
        [K]      [eV]     [cm^-3]      [e per cell]                    [cm^2/Vs]
     =============================================================================================

      100.000  10.0899   0.99999E+17   0.11979E-15    0.101593E+05   -0.295418E-13    0.000000E+00
                                                      0.242085E-13    0.684064E+04    0.000000E+00
                                                      0.000000E+00    0.000000E+00    0.684064E+04
      200.000  10.0541   0.10000E+18  -0.87380E-17    0.107532E+04    0.782764E-15    0.000000E+00
                                                     -0.896634E-15    0.715092E+03    0.000000E+00
                                                      0.000000E+00    0.000000E+00    0.715092E+03
      300.000  10.0114   0.10000E+18  -0.36536E-17    0.376503E+03   -0.629286E-15    0.000000E+00
                                                      0.156874E-15    0.243651E+03    0.000000E+00
                                                      0.000000E+00    0.000000E+00    0.243651E+03
      400.000   9.9643   0.99999E+17   0.31627E-18    0.199332E+03   -0.496566E-15    0.000000E+00
                                                      0.258923E-15    0.131079E+03    0.000000E+00
                                                      0.000000E+00    0.000000E+00    0.131079E+03
      500.000   9.9139   0.10000E+18  -0.46892E-18    0.130314E+03   -0.182636E-15    0.000000E+00
                                                     -0.184256E-17    0.878977E+02    0.000000E+00
                                                      0.000000E+00    0.000000E+00    0.878977E+02
      600.000   9.8609   0.10000E+18  -0.54379E-19    0.966942E+02   -0.606311E-16    0.000000E+00
                                                     -0.160130E-15    0.667583E+02    0.000000E+00
                                                      0.000000E+00    0.000000E+00    0.667583E+02
      700.000   9.8057   0.99999E+17  -0.84955E-19    0.776980E+02   -0.123789E-15    0.000000E+00
                                                      0.165948E-16    0.546774E+02    0.000000E+00
                                                      0.000000E+00    0.000000E+00    0.546774E+02
      800.000   9.7485   0.10000E+18  -0.10059E-19    0.656604E+02   -0.862650E-16    0.000000E+00
                                                      0.102906E-16    0.469168E+02    0.000000E+00
                                                      0.000000E+00    0.000000E+00    0.469168E+02
      900.000   9.6898   0.10000E+18  -0.84836E-19    0.572669E+02    0.330040E-16    0.000000E+00
                                                      0.576643E-16    0.414227E+02    0.000000E+00
                                                      0.000000E+00    0.000000E+00    0.414227E+02
     1000.000   9.6295   0.10000E+18   0.87589E-19    0.509312E+02   -0.120520E-16    0.000000E+00
                                                     -0.315207E-16    0.372073E+02    0.000000E+00
                                                      0.000000E+00    0.000000E+00    0.372073E+02

                                                      0.905504E-05    Max error
     Iteration number:        27

     =============================================================================================
       Temp     Fermi   Elec density  Population SR                  Elec mobility 
        [K]      [eV]     [cm^-3]      [e per cell]                    [cm^2/Vs]
     =============================================================================================

      100.000  10.0899   0.99999E+17   0.52291E-16    0.101593E+05    0.693277E-14    0.000000E+00
                                                      0.128160E-13    0.684064E+04    0.000000E+00
                                                      0.000000E+00    0.000000E+00    0.684064E+04
      200.000  10.0541   0.10000E+18  -0.62985E-17    0.107532E+04    0.923217E-15    0.000000E+00
                                                      0.586214E-15    0.715092E+03    0.000000E+00
                                                      0.000000E+00    0.000000E+00    0.715092E+03
      300.000  10.0114   0.10000E+18  -0.61592E-18    0.376503E+03   -0.756453E-15    0.000000E+00
                                                      0.607664E-15    0.243651E+03    0.000000E+00
                                                      0.000000E+00    0.000000E+00    0.243651E+03
      400.000   9.9643   0.99999E+17  -0.11860E-18    0.199332E+03    0.128272E-15    0.000000E+00
                                                      0.274700E-15    0.131079E+03    0.000000E+00
                                                      0.000000E+00    0.000000E+00    0.131079E+03
      500.000   9.9139   0.10000E+18   0.20751E-18    0.130314E+03   -0.183473E-16    0.000000E+00
                                                      0.253099E-15    0.878977E+02    0.000000E+00
                                                      0.000000E+00    0.000000E+00    0.878977E+02
      600.000   9.8609   0.10000E+18   0.46758E-18    0.966942E+02    0.600401E-16    0.000000E+00
                                                      0.423560E-16    0.667583E+02    0.000000E+00
                                                      0.000000E+00    0.000000E+00    0.667583E+02
      700.000   9.8057   0.99999E+17   0.15570E-18    0.776980E+02    0.486025E-16    0.000000E+00
                                                     -0.648960E-17    0.546774E+02    0.000000E+00
                                                      0.000000E+00    0.000000E+00    0.546774E+02
      800.000   9.7485   0.10000E+18  -0.92790E-19    0.656604E+02    0.132480E-15    0.000000E+00
                                                      0.616509E-16    0.469168E+02    0.000000E+00
                                                      0.000000E+00    0.000000E+00    0.469168E+02
      900.000   9.6898   0.10000E+18  -0.44099E-19    0.572669E+02    0.282759E-16    0.000000E+00
                                                      0.346727E-16    0.414227E+02    0.000000E+00
                                                      0.000000E+00    0.000000E+00    0.414227E+02
     1000.000   9.6295   0.10000E+18   0.65539E-19    0.509312E+02    0.152041E-16    0.000000E+00
                                                     -0.165020E-16    0.372073E+02    0.000000E+00
                                                      0.000000E+00    0.000000E+00    0.372073E+02

                                                      0.519207E-05    Max error
     Iteration number:        28

     =============================================================================================
       Temp     Fermi   Elec density  Population SR                  Elec mobility 
        [K]      [eV]     [cm^-3]      [e per cell]                    [cm^2/Vs]
     =============================================================================================

      100.000  10.0899   0.99999E+17   0.62643E-17    0.101593E+05   -0.368333E-13    0.000000E+00
                                                      0.284988E-15    0.684064E+04    0.000000E+00
                                                      0.000000E+00    0.000000E+00    0.684064E+04
      200.000  10.0541   0.10000E+18   0.83330E-18    0.107532E+04    0.792879E-15    0.000000E+00
                                                      0.344610E-14    0.715092E+03    0.000000E+00
                                                      0.000000E+00    0.000000E+00    0.715092E+03
      300.000  10.0114   0.10000E+18   0.13435E-17    0.376503E+03   -0.208366E-15    0.000000E+00
                                                     -0.276952E-15    0.243651E+03    0.000000E+00
                                                      0.000000E+00    0.000000E+00    0.243651E+03
      400.000   9.9643   0.99999E+17   0.58166E-18    0.199332E+03   -0.217895E-16    0.000000E+00
                                                     -0.341514E-15    0.131079E+03    0.000000E+00
                                                      0.000000E+00    0.000000E+00    0.131079E+03
      500.000   9.9139   0.10000E+18   0.12972E-18    0.130314E+03   -0.126661E-15    0.000000E+00
                                                     -0.592399E-16    0.878977E+02    0.000000E+00
                                                      0.000000E+00    0.000000E+00    0.878977E+02
      600.000   9.8609   0.10000E+18   0.23939E-19    0.966942E+02   -0.130116E-15    0.000000E+00
                                                      0.837270E-16    0.667583E+02    0.000000E+00
                                                      0.000000E+00    0.000000E+00    0.667583E+02
      700.000   9.8057   0.99999E+17  -0.10906E-19    0.776980E+02    0.155055E-16    0.000000E+00
                                                      0.128865E-16    0.546774E+02    0.000000E+00
                                                      0.000000E+00    0.000000E+00    0.546774E+02
      800.000   9.7485   0.10000E+18   0.18215E-18    0.656604E+02    0.109396E-16    0.000000E+00
                                                      0.463541E-17    0.469168E+02    0.000000E+00
                                                      0.000000E+00    0.000000E+00    0.469168E+02
      900.000   9.6898   0.10000E+18  -0.46057E-20    0.572669E+02   -0.446852E-16    0.000000E+00
                                                      0.411623E-16    0.414227E+02    0.000000E+00
                                                      0.000000E+00    0.000000E+00    0.414227E+02
     1000.000   9.6295   0.10000E+18   0.96879E-20    0.509312E+02    0.203957E-16    0.000000E+00
                                                      0.200249E-16    0.372073E+02    0.000000E+00
                                                      0.000000E+00    0.000000E+00    0.372073E+02

                                                      0.297721E-05    Max error
     Iteration number:        29

     =============================================================================================
       Temp     Fermi   Elec density  Population SR                  Elec mobility 
        [K]      [eV]     [cm^-3]      [e per cell]                    [cm^2/Vs]
     =============================================================================================

      100.000  10.0899   0.99999E+17  -0.97078E-16    0.101593E+05   -0.656243E-14    0.000000E+00
                                                      0.949337E-16    0.684064E+04    0.000000E+00
                                                      0.000000E+00    0.000000E+00    0.684064E+04
      200.000  10.0541   0.10000E+18  -0.59831E-17    0.107532E+04    0.593243E-15    0.000000E+00
                                                      0.200064E-14    0.715092E+03    0.000000E+00
                                                      0.000000E+00    0.000000E+00    0.715092E+03
      300.000  10.0114   0.10000E+18  -0.13209E-17    0.376503E+03   -0.238160E-15    0.000000E+00
                                                      0.870602E-15    0.243651E+03    0.000000E+00
                                                      0.000000E+00    0.000000E+00    0.243651E+03
      400.000   9.9643   0.99999E+17   0.21720E-18    0.199332E+03   -0.618141E-15    0.000000E+00
                                                     -0.385924E-15    0.131079E+03    0.000000E+00
                                                      0.000000E+00    0.000000E+00    0.131079E+03
      500.000   9.9139   0.10000E+18  -0.80825E-19    0.130314E+03    0.223488E-15    0.000000E+00
                                                     -0.141961E-15    0.878977E+02    0.000000E+00
                                                      0.000000E+00    0.000000E+00    0.878977E+02
      600.000   9.8609   0.10000E+18  -0.32014E-18    0.966942E+02   -0.263175E-16    0.000000E+00
                                                     -0.159458E-16    0.667583E+02    0.000000E+00
                                                      0.000000E+00    0.000000E+00    0.667583E+02
      700.000   9.8057   0.99999E+17  -0.12330E-18    0.776980E+02    0.105224E-15    0.000000E+00
                                                      0.544200E-16    0.546774E+02    0.000000E+00
                                                      0.000000E+00    0.000000E+00    0.546774E+02
      800.000   9.7485   0.10000E+18   0.50848E-19    0.656604E+02    0.370833E-17    0.000000E+00
                                                      0.574791E-16    0.469168E+02    0.000000E+00
                                                      0.000000E+00    0.000000E+00    0.469168E+02
      900.000   9.6898   0.10000E+18   0.11408E-19    0.572669E+02   -0.528435E-17    0.000000E+00
                                                      0.290176E-16    0.414227E+02    0.000000E+00
                                                      0.000000E+00    0.000000E+00    0.414227E+02
     1000.000   9.6295   0.10000E+18   0.48043E-19    0.509312E+02    0.324478E-16    0.000000E+00
                                                      0.741663E-17    0.372073E+02    0.000000E+00
                                                      0.000000E+00    0.000000E+00    0.372073E+02

                                                      0.170724E-05    Max error
     Iteration number:        30

     =============================================================================================
       Temp     Fermi   Elec density  Population SR                  Elec mobility 
        [K]      [eV]     [cm^-3]      [e per cell]                    [cm^2/Vs]
     =============================================================================================

      100.000  10.0899   0.99999E+17  -0.77441E-16    0.101593E+05   -0.429262E-13    0.000000E+00
                                                      0.284801E-15    0.684064E+04    0.000000E+00
                                                      0.000000E+00    0.000000E+00    0.684064E+04
      200.000  10.0541   0.10000E+18  -0.27704E-16    0.107532E+04    0.114690E-14    0.000000E+00
                                                     -0.106741E-15    0.715092E+03    0.000000E+00
                                                      0.000000E+00    0.000000E+00    0.715092E+03
      300.000  10.0114   0.10000E+18   0.38938E-18    0.376503E+03    0.397004E-15    0.000000E+00
                                                      0.489095E-15    0.243651E+03    0.000000E+00
                                                      0.000000E+00    0.000000E+00    0.243651E+03
      400.000   9.9643   0.99999E+17   0.79902E-18    0.199332E+03   -0.131853E-15    0.000000E+00
                                                     -0.167070E-15    0.131079E+03    0.000000E+00
                                                      0.000000E+00    0.000000E+00    0.131079E+03
      500.000   9.9139   0.10000E+18  -0.41640E-19    0.130314E+03   -0.128400E-16    0.000000E+00
                                                     -0.514902E-16    0.878977E+02    0.000000E+00
                                                      0.000000E+00    0.000000E+00    0.878977E+02
      600.000   9.8609   0.10000E+18  -0.22130E-18    0.966942E+02    0.657880E-16    0.000000E+00
                                                      0.920707E-16    0.667583E+02    0.000000E+00
                                                      0.000000E+00    0.000000E+00    0.667583E+02
      700.000   9.8057   0.99999E+17  -0.94133E-19    0.776980E+02   -0.580588E-16    0.000000E+00
                                                     -0.694851E-16    0.546774E+02    0.000000E+00
                                                      0.000000E+00    0.000000E+00    0.546774E+02
      800.000   9.7485   0.10000E+18   0.79820E-19    0.656604E+02   -0.403281E-17    0.000000E+00
                                                      0.371760E-16    0.469168E+02    0.000000E+00
                                                      0.000000E+00    0.000000E+00    0.469168E+02
      900.000   9.6898   0.10000E+18  -0.10943E-18    0.572669E+02   -0.267926E-16    0.000000E+00
                                                      0.262363E-16    0.414227E+02    0.000000E+00
                                                      0.000000E+00    0.000000E+00    0.414227E+02
     1000.000   9.6295   0.10000E+18  -0.16676E-20    0.509312E+02    0.402352E-16    0.000000E+00
                                                     -0.265145E-16    0.372073E+02    0.000000E+00
                                                      0.000000E+00    0.000000E+00    0.372073E+02

                                                      0.979020E-06    Max error

     Unfolding on the coarse grid
     elphon_wrap  :      0.01s CPU      0.41s WALL (       1 calls)

     INITIALIZATION: 




     Electron-Phonon interpolation
     ephwann      :  61513.90s CPU  74325.33s WALL (       1 calls)
     ep-interp    :  59672.42s CPU  72468.67s WALL (   34752 calls)

     DynW2B       :     90.65s CPU     94.08s WALL (   34752 calls)
     HamW2B       :  12917.22s CPU  13106.41s WALL ( 6116484 calls)
     ephW2Bp      :   9165.91s CPU   9434.63s WALL (   34752 calls)
     ephW2B       :    295.33s CPU    295.92s WALL (   10926 calls)
     print_ibte   :  19734.84s CPU  32050.68s WALL (   34752 calls)
     vmewan2bloch :    224.25s CPU    225.36s WALL (   21852 calls)
     vmewan2bloch :    224.25s CPU    225.36s WALL (   21852 calls)
     kpoint_paral :     39.84s CPU     41.03s WALL (       1 calls)


     Total program execution
     EPW          :     17h 5m CPU     20h38m WALL

     ===============================================================================
     The functionality-dependent EPW.bib file was created with suggested citations. 
     Please consider citing the papers listed in EPW.bib.                           
     ===============================================================================
                                                                                    
