<PP_INFO>
Generated using Fritz-Haber code                                                
Author: unknown    Generation date: as well                                     
Info: automatically converted from FHI format                                   
    1        The Pseudo was generated with a Scalar-Relativistic Calculation
nl pn  l   occ               Rcut            Rcut US             E pseu
3s  0  0  2.00      0.00000000000      0.00000000000      0.00000000000
3p  0  1  1.75      0.00000000000      0.00000000000      0.00000000000
3d  0  2  0.25      0.00000000000      0.00000000000      0.00000000000

14.00 3 3 3 0.00 : z nc nv
    1  0   2.00      : n  l   f 
    2  0   2.00 
    2  1   6.00 
    3  0   2.00 
    3  1   1.75
    3  2   0.25 
2 t
0 2.00 0.00 t
1 2.00 0.00 t
2 2.00 0.00 t

[kioup@nid00160] <1012> [14:00:24] [~/work/silicon/indirect_absorption] $ ~/code/espresso-4.0.2/upftools/fhi2upf.x
Input file > si.cpi
Pseudopotential without NLCC successfully read
Atom name > Si
l local (max: 2) > 0
DFT > PZ
Wavefunction # 1: label, occupancy > 3s, 2.00
Wavefunction # 2: label, occupancy > 3p, 1.75
Wavefunction # 3: label, occupancy > 3d, 0.25
Pseudopotential successfully converted
Output PP file in UPF format :  si.cpi.UPF   

</PP_INFO>


<PP_HEADER>
   0                   Version Number
  Si                   Element
   NC                  Norm - Conserving pseudopotential
    F                  Nonlinear Core Correction
SLA  PZ   NOGX NOGC    PZ   Exchange-Correlation functional
    4.00000000000      Z valence
    0.00000000000      Total energy
  0.0000000  0.0000000 Suggested cutoff for wfc and rho
    2                  Max angular momentum component
  495                  Number of points in mesh
    3    2             Number of Wavefunctions, Number of Projectors
 Wavefunctions         nl  l   occ
                       3s  0  2.00
                       3p  1  1.75
                       3d  2  0.25
</PP_HEADER>


<PP_MESH>
  <PP_R>
  4.46428571429E-04  4.57455357143E-04  4.68754504464E-04  4.80332740725E-04
  4.92196959420E-04  5.04354224318E-04  5.16811773659E-04  5.29577024468E-04
  5.42657576973E-04  5.56061219124E-04  5.69795931236E-04  5.83869890738E-04
  5.98291477039E-04  6.13069276522E-04  6.28212087652E-04  6.43728926217E-04
  6.59629030694E-04  6.75921867753E-04  6.92617137886E-04  7.09724781192E-04
  7.27254983287E-04  7.45218181374E-04  7.63625070454E-04  7.82486609695E-04
  8.01814028954E-04  8.21618835469E-04  8.41912820705E-04  8.62708067377E-04
  8.84016956641E-04  9.05852175470E-04  9.28226724204E-04  9.51153924292E-04
  9.74647426222E-04  9.98721217650E-04  1.02338963173E-03  1.04866735563E-03
  1.07456943931E-03  1.10111130446E-03  1.12830875368E-03  1.15617797990E-03
  1.18473557600E-03  1.21399854473E-03  1.24398430879E-03  1.27471072121E-03
  1.30619607603E-03  1.33845911911E-03  1.37151905935E-03  1.40539558011E-03
  1.44010885094E-03  1.47567953956E-03  1.51212882419E-03  1.54947840614E-03
  1.58775052278E-03  1.62696796069E-03  1.66715406932E-03  1.70833277483E-03
  1.75052859437E-03  1.79376665065E-03  1.83807268692E-03  1.88347308229E-03
  1.92999486742E-03  1.97766574064E-03  2.02651408444E-03  2.07656898232E-03
  2.12786023619E-03  2.18041838402E-03  2.23427471811E-03  2.28946130364E-03
  2.34601099784E-03  2.40395746949E-03  2.46333521899E-03  2.52417959890E-03
  2.58652683499E-03  2.65041404781E-03  2.71587927479E-03  2.78296149288E-03
  2.85170064176E-03  2.92213764761E-03  2.99431444750E-03  3.06827401436E-03
  3.14406038251E-03  3.22171867396E-03  3.30129512521E-03  3.38283711480E-03
  3.46639319153E-03  3.55201310336E-03  3.63974782702E-03  3.72964959835E-03
  3.82177194342E-03  3.91616971043E-03  4.01289910227E-03  4.11201771010E-03
  4.21358454754E-03  4.31766008586E-03  4.42430628999E-03  4.53358665535E-03
  4.64556624574E-03  4.76031173200E-03  4.87789143179E-03  4.99837535015E-03
  5.12183522130E-03  5.24834455127E-03  5.37797866168E-03  5.51081473463E-03
  5.64693185857E-03  5.78641107548E-03  5.92933542904E-03  6.07579001414E-03
  6.22586202749E-03  6.37964081957E-03  6.53721794781E-03  6.69868723112E-03
  6.86414480573E-03  7.03368918243E-03  7.20742130524E-03  7.38544461148E-03
  7.56786509338E-03  7.75479136119E-03  7.94633470781E-03  8.14260917509E-03
  8.34373162172E-03  8.54982179277E-03  8.76100239105E-03  8.97739915011E-03
  9.19914090912E-03  9.42635968958E-03  9.65919077391E-03  9.89777278602E-03
  1.01422477738E-02  1.03927612939E-02  1.06494624978E-02  1.09125042215E-02
  1.11820430758E-02  1.14582395397E-02  1.17412580564E-02  1.20312671304E-02
  1.23284394285E-02  1.26329518824E-02  1.29449857939E-02  1.32647269430E-02
  1.35923656985E-02  1.39280971312E-02  1.42721211304E-02  1.46246425223E-02
  1.49858711926E-02  1.53560222110E-02  1.57353159597E-02  1.61239782639E-02
  1.65222405270E-02  1.69303398680E-02  1.73485192627E-02  1.77770276885E-02
  1.82161202724E-02  1.86660584432E-02  1.91271100867E-02  1.95995497058E-02
  2.00836585836E-02  2.05797249506E-02  2.10880441569E-02  2.16089188475E-02
  2.21426591431E-02  2.26895828239E-02  2.32500155197E-02  2.38242909030E-02
  2.44127508883E-02  2.50157458352E-02  2.56336347574E-02  2.62667855359E-02
  2.69155751386E-02  2.75803898445E-02  2.82616254737E-02  2.89596876229E-02
  2.96749919072E-02  3.04079642073E-02  3.11590409232E-02  3.19286692340E-02
  3.27173073641E-02  3.35254248560E-02  3.43535028499E-02  3.52020343703E-02
  3.60715246193E-02  3.69624912774E-02  3.78754648119E-02  3.88109887928E-02
  3.97696202160E-02  4.07519298353E-02  4.17585025022E-02  4.27899375140E-02
  4.38468489706E-02  4.49298661402E-02  4.60396338339E-02  4.71768127896E-02
  4.83420800655E-02  4.95361294431E-02  5.07596718403E-02  5.20134357348E-02
  5.32981675974E-02  5.46146323371E-02  5.59636137558E-02  5.73459150156E-02
  5.87623591165E-02  6.02137893867E-02  6.17010699845E-02  6.32250864131E-02
  6.47867460475E-02  6.63869786749E-02  6.80267370482E-02  6.97069974533E-02
  7.14287602904E-02  7.31930506695E-02  7.50009190211E-02  7.68534417209E-02
  7.87517217314E-02  8.06968892582E-02  8.26901024228E-02  8.47325479527E-02
  8.68254418871E-02  8.89700303017E-02  9.11675900502E-02  9.34194295244E-02
  9.57268894337E-02  9.80913436027E-02  1.00514199790E-01  1.02996900524E-01
  1.05540923967E-01  1.08147784789E-01  1.10819035074E-01  1.13556265240E-01
  1.16361104991E-01  1.19235224285E-01  1.22180334325E-01  1.25198188582E-01
  1.28290583840E-01  1.31459361261E-01  1.34706407484E-01  1.38033655749E-01
  1.41443087046E-01  1.44936731296E-01  1.48516668559E-01  1.52185030273E-01
  1.55944000520E-01  1.59795817333E-01  1.63742774021E-01  1.67787220540E-01
  1.71931564887E-01  1.76178274540E-01  1.80529877921E-01  1.84988965906E-01
  1.89558193363E-01  1.94240280740E-01  1.99038015674E-01  2.03954254661E-01
  2.08991924751E-01  2.14154025292E-01  2.19443629717E-01  2.24863887371E-01
  2.30418025389E-01  2.36109350616E-01  2.41941251577E-01  2.47917200491E-01
  2.54040755343E-01  2.60315562000E-01  2.66745356381E-01  2.73333966684E-01
  2.80085315661E-01  2.87003422958E-01  2.94092407505E-01  3.01356489970E-01
  3.08799995272E-01  3.16427355155E-01  3.24243110828E-01  3.32251915665E-01
  3.40458537982E-01  3.48867863870E-01  3.57484900108E-01  3.66314777141E-01
  3.75362752136E-01  3.84634212114E-01  3.94134677153E-01  4.03869803679E-01
  4.13845387829E-01  4.24067368909E-01  4.34541832921E-01  4.45275016194E-01
  4.56273309094E-01  4.67543259829E-01  4.79091578346E-01  4.90925140332E-01
  5.03050991298E-01  5.15476350783E-01  5.28208616647E-01  5.41255369478E-01
  5.54624377104E-01  5.68323599219E-01  5.82361192120E-01  5.96745513565E-01
  6.11485127750E-01  6.26588810405E-01  6.42065554023E-01  6.57924573207E-01
  6.74175310165E-01  6.90827440326E-01  7.07890878102E-01  7.25375782791E-01
  7.43292564626E-01  7.61651890973E-01  7.80464692680E-01  7.99742170589E-01
  8.19495802202E-01  8.39737348517E-01  8.60478861025E-01  8.81732688892E-01
  9.03511486308E-01  9.25828220020E-01  9.48696177054E-01  9.72128972628E-01
  9.96140558251E-01  1.02074523004E+00  1.04595763722E+00  1.07179279086E+00
  1.09826607280E+00  1.12539324479E+00  1.15319045794E+00  1.18167426225E+00
  1.21086161653E+00  1.24076989846E+00  1.27141691495E+00  1.30282091275E+00
  1.33500058929E+00  1.36797510385E+00  1.40176408891E+00  1.43638766191E+00
  1.47186643716E+00  1.50822153816E+00  1.54547461015E+00  1.58364783302E+00
  1.62276393450E+00  1.66284620368E+00  1.70391850491E+00  1.74600529198E+00
  1.78913162269E+00  1.83332317377E+00  1.87860625616E+00  1.92500783069E+00
  1.97255552411E+00  2.02127764556E+00  2.07120320340E+00  2.12236192252E+00
  2.17478426201E+00  2.22850143328E+00  2.28354541869E+00  2.33994899053E+00
  2.39774573059E+00  2.45697005014E+00  2.51765721038E+00  2.57984334347E+00
  2.64356547406E+00  2.70886154127E+00  2.77577042134E+00  2.84433195074E+00
  2.91458694993E+00  2.98657724759E+00  3.06034570560E+00  3.13593624453E+00
  3.21339386977E+00  3.29276469836E+00  3.37409598641E+00  3.45743615727E+00
  3.54283483035E+00  3.63034285066E+00  3.72001231908E+00  3.81189662336E+00
  3.90605046995E+00  4.00252991656E+00  4.10139240550E+00  4.20269679792E+00
  4.30650340882E+00  4.41287404302E+00  4.52187203189E+00  4.63356227107E+00
  4.74801125917E+00  4.86528713727E+00  4.98545972956E+00  5.10860058488E+00
  5.23478301933E+00  5.36408215990E+00  5.49657498925E+00  5.63234039149E+00
  5.77145919916E+00  5.91401424138E+00  6.06009039314E+00  6.20977462585E+00
  6.36315605911E+00  6.52032601377E+00  6.68137806631E+00  6.84640810455E+00
  7.01551438473E+00  7.18879759003E+00  7.36636089051E+00  7.54831000450E+00
  7.73475326161E+00  7.92580166717E+00  8.12156896835E+00  8.32217172187E+00
  8.52772936340E+00  8.73836427868E+00  8.95420187636E+00  9.17537066271E+00
  9.40200231808E+00  9.63423177533E+00  9.87219730018E+00  1.01160405735E+01
  1.03659067757E+01  1.06219446730E+01  1.08843067064E+01  1.11531490821E+01
  1.14286318644E+01  1.17109190715E+01  1.20001787725E+01  1.22965831882E+01
  1.26003087930E+01  1.29115364202E+01  1.32304513697E+01  1.35572435186E+01
  1.38921074335E+01  1.42352424871E+01  1.45868529765E+01  1.49471482450E+01
  1.53163428067E+01  1.56946564740E+01  1.60823144889E+01  1.64795476568E+01
  1.68865924839E+01  1.73036913183E+01  1.77310924938E+01  1.81690504784E+01
  1.86178260252E+01  1.90776863281E+01  1.95489051804E+01  2.00317631383E+01
  2.05265476878E+01  2.10335534157E+01  2.15530821851E+01  2.20854433151E+01
  2.26309537650E+01  2.31899383230E+01  2.37627297995E+01  2.43496692256E+01
  2.49511060554E+01  2.55673983750E+01  2.61989131149E+01  2.68460262688E+01
  2.75091231177E+01  2.81885984587E+01  2.88848568406E+01  2.95983128046E+01
  3.03293911308E+01  3.10785270918E+01  3.18461667109E+01  3.26327670287E+01
  3.34387963743E+01  3.42647346447E+01  3.51110735905E+01  3.59783171082E+01
  3.68669815407E+01  3.77775959848E+01  3.87107026056E+01  3.96668569600E+01
  4.06466283269E+01  4.16506000465E+01  4.26793698677E+01  4.37335503034E+01
  4.48137689959E+01  4.59206690901E+01  4.70549096166E+01  4.82171658842E+01
  4.94081298815E+01  5.06285106896E+01  5.18790349036E+01  5.31604470657E+01
  5.44735101083E+01  5.58190058079E+01  5.71977352514E+01  5.86105193121E+01
  6.00581991391E+01  6.15416366578E+01  6.30617150833E+01  6.46193394459E+01
  6.62154371302E+01  6.78509584273E+01  6.95268771004E+01  7.12441909648E+01
  7.30039224816E+01  7.48071193669E+01  7.66548552153E+01
  </PP_R>
  <PP_RAB>
  1.08928066176E-05  1.11618589411E-05  1.14375568570E-05  1.17200645113E-05
  1.20095501047E-05  1.23061859923E-05  1.26101487863E-05  1.29216194614E-05
  1.32407834621E-05  1.35678308136E-05  1.39029562347E-05  1.42463592537E-05
  1.45982443272E-05  1.49588209621E-05  1.53283038399E-05  1.57069129447E-05
  1.60948736945E-05  1.64924170747E-05  1.68997797765E-05  1.73172043369E-05
  1.77449392841E-05  1.81832392844E-05  1.86323652947E-05  1.90925847175E-05
  1.95641715600E-05  2.00474065975E-05  2.05425775405E-05  2.10499792057E-05
  2.15699136921E-05  2.21026905603E-05  2.26486270172E-05  2.32080481045E-05
  2.37812868927E-05  2.43686846789E-05  2.49705911905E-05  2.55873647929E-05
  2.62193727033E-05  2.68669912090E-05  2.75306058919E-05  2.82106118574E-05
  2.89074139703E-05  2.96214270954E-05  3.03530763446E-05  3.11027973303E-05
  3.18710364244E-05  3.26582510241E-05  3.34649098244E-05  3.42914930970E-05
  3.51384929765E-05  3.60064137531E-05  3.68957721728E-05  3.78070977454E-05
  3.87409330597E-05  3.96978341063E-05  4.06783706088E-05  4.16831263628E-05
  4.27126995839E-05  4.37677032637E-05  4.48487655343E-05  4.59565300430E-05
  4.70916563350E-05  4.82548202465E-05  4.94467143066E-05  5.06680481500E-05
  5.19195489393E-05  5.32019617981E-05  5.45160502545E-05  5.58625966958E-05
  5.72424028342E-05  5.86562901842E-05  6.01051005517E-05  6.15896965353E-05
  6.31109620398E-05  6.46698028022E-05  6.62671469314E-05  6.79039454606E-05
  6.95811729134E-05  7.12998278844E-05  7.30609336332E-05  7.48655386939E-05
  7.67147174996E-05  7.86095710219E-05  8.05512274261E-05  8.25408427435E-05
  8.45796015593E-05  8.66687177178E-05  8.88094350454E-05  9.10030280911E-05
  9.32508028849E-05  9.55540977162E-05  9.79142839298E-05  1.00332766743E-04
  1.02810986081E-04  1.05350417438E-04  1.07952572748E-04  1.10619001295E-04
  1.13351290627E-04  1.16151067506E-04  1.19019998873E-04  1.21959792845E-04
  1.24972199728E-04  1.28059013062E-04  1.31222070684E-04  1.34463255830E-04
  1.37784498249E-04  1.41187775356E-04  1.44675113407E-04  1.48248588709E-04
  1.51910328850E-04  1.55662513972E-04  1.59507378067E-04  1.63447210306E-04
  1.67484356400E-04  1.71621220003E-04  1.75860264137E-04  1.80204012662E-04
  1.84655051774E-04  1.89216031553E-04  1.93889667532E-04  1.98678742320E-04
  2.03586107256E-04  2.08614684105E-04  2.13767466802E-04  2.19047523232E-04
  2.24457997056E-04  2.30002109584E-04  2.35683161690E-04  2.41504535784E-04
  2.47469697818E-04  2.53582199354E-04  2.59845679678E-04  2.66263867966E-04
  2.72840585505E-04  2.79579747967E-04  2.86485367742E-04  2.93561556325E-04
  3.00812526766E-04  3.08242596177E-04  3.15856188303E-04  3.23657836154E-04
  3.31652184707E-04  3.39843993669E-04  3.48238140313E-04  3.56839622378E-04
  3.65653561051E-04  3.74685204009E-04  3.83939928548E-04  3.93423244783E-04
  4.03140798929E-04  4.13098376663E-04  4.23301906567E-04  4.33757463659E-04
  4.44471273011E-04  4.55449713455E-04  4.66699321377E-04  4.78226794615E-04
  4.90038996442E-04  5.02142959654E-04  5.14545890757E-04  5.27255174259E-04
  5.40278377063E-04  5.53623252977E-04  5.67297747325E-04  5.81310001684E-04
  5.95668358726E-04  6.10381367186E-04  6.25457786956E-04  6.40906594294E-04
  6.56736987173E-04  6.72958390756E-04  6.89580463008E-04  7.06613100444E-04
  7.24066444025E-04  7.41950885192E-04  7.60277072057E-04  7.79055915736E-04
  7.98298596855E-04  8.18016572197E-04  8.38221581531E-04  8.58925654594E-04
  8.80141118263E-04  9.01880603884E-04  9.24157054800E-04  9.46983734053E-04
  9.70374232285E-04  9.94342475822E-04  1.01890273497E-03  1.04406963253E-03
  1.06985815245E-03  1.09628364882E-03  1.12336185494E-03  1.15110889276E-03
  1.17954128241E-03  1.20867595209E-03  1.23853024810E-03  1.26912194523E-03
  1.30046925728E-03  1.33259084793E-03  1.36550584188E-03  1.39923383617E-03
  1.43379491193E-03  1.46920964625E-03  1.50549912451E-03  1.54268495289E-03
  1.58078927122E-03  1.61983476622E-03  1.65984468495E-03  1.70084284867E-03
  1.74285366703E-03  1.78590215261E-03  1.83001393578E-03  1.87521527999E-03
  1.92153309740E-03  1.96899496491E-03  2.01762914054E-03  2.06746458032E-03
  2.11853095545E-03  2.17085867005E-03  2.22447887920E-03  2.27942350751E-03
  2.33572526815E-03  2.39341768227E-03  2.45253509903E-03  2.51311271597E-03
  2.57518660006E-03  2.63879370908E-03  2.70397191369E-03  2.77076001996E-03
  2.83919779245E-03  2.90932597793E-03  2.98118632958E-03  3.05482163192E-03
  3.13027572623E-03  3.20759353667E-03  3.28682109702E-03  3.36800557812E-03
  3.45119531590E-03  3.53643984020E-03  3.62378990426E-03  3.71329751489E-03
  3.80501596351E-03  3.89899985781E-03  3.99530515430E-03  4.09398919161E-03
  4.19511072464E-03  4.29872995954E-03  4.40490858954E-03  4.51370983170E-03
  4.62519846454E-03  4.73944086662E-03  4.85650505602E-03  4.97646073091E-03
  5.09937931096E-03  5.22533397994E-03  5.35439972925E-03  5.48665340256E-03
  5.62217374160E-03  5.76104143302E-03  5.90333915641E-03  6.04915163358E-03
  6.19856567893E-03  6.35167025120E-03  6.50855650640E-03  6.66931785211E-03
  6.83405000306E-03  7.00285103813E-03  7.17582145877E-03  7.35306424881E-03
  7.53468493575E-03  7.72079165366E-03  7.91149520751E-03  8.10690913913E-03
  8.30714979487E-03  8.51233639480E-03  8.72259110376E-03  8.93803910402E-03
  9.15880866989E-03  9.38503124403E-03  9.61684151576E-03  9.85437750120E-03
  1.00977806255E-02  1.03471958069E-02  1.06027715434E-02  1.08646600005E-02
  1.11330171025E-02  1.14080026249E-02  1.16897802898E-02  1.19785178629E-02
  1.22743872541E-02  1.25775646193E-02  1.28882304654E-02  1.32065697579E-02
  1.35327720309E-02  1.38670315001E-02  1.42095471781E-02  1.45605229934E-02
  1.49201679114E-02  1.52886960588E-02  1.56663268514E-02  1.60532851247E-02
  1.64498012672E-02  1.68561113586E-02  1.72724573091E-02  1.76990870046E-02
  1.81362544537E-02  1.85842199387E-02  1.90432501711E-02  1.95136184504E-02
  1.99956048261E-02  2.04894962653E-02  2.09955868231E-02  2.15141778176E-02
  2.20455780097E-02  2.25901037865E-02  2.31480793500E-02  2.37198369100E-02
  2.43057168817E-02  2.49060680886E-02  2.55212479704E-02  2.61516227953E-02
  2.67975678783E-02  2.74594678049E-02  2.81377166597E-02  2.88327182612E-02
  2.95448864023E-02  3.02746450964E-02  3.10224288303E-02  3.17886828224E-02
  3.25738632881E-02  3.33784377113E-02  3.42028851228E-02  3.50476963853E-02
  3.59133744860E-02  3.68004348359E-02  3.77094055763E-02  3.86408278940E-02
  3.95952563430E-02  4.05732591747E-02  4.15754186763E-02  4.26023315176E-02
  4.36546091061E-02  4.47328779510E-02  4.58377800364E-02  4.69699732033E-02
  4.81301315414E-02  4.93189457905E-02  5.05371237515E-02  5.17853907082E-02
  5.30644898587E-02  5.43751827582E-02  5.57182497723E-02  5.70944905417E-02
  5.85047244581E-02  5.99497911522E-02  6.14305509936E-02  6.29478856032E-02
  6.45026983776E-02  6.60959150275E-02  6.77284841287E-02  6.94013776867E-02
  7.11155917155E-02  7.28721468309E-02  7.46720888576E-02  7.65164894524E-02
  7.84064467419E-02  8.03430859764E-02  8.23275602000E-02  8.43610509370E-02
  8.64447688951E-02  8.85799546868E-02  9.07678795676E-02  9.30098461929E-02
  9.53071893939E-02  9.76612769719E-02  1.00073510513E-01  1.02545326223E-01
  1.05078195780E-01  1.07673627216E-01  1.10333165809E-01  1.13058395004E-01
  1.15850937361E-01  1.18712455513E-01  1.21644653165E-01  1.24649276098E-01
  1.27728113217E-01  1.30882997614E-01  1.34115807655E-01  1.37428468104E-01
  1.40822951266E-01  1.44301278162E-01  1.47865519733E-01  1.51517798070E-01
  1.55260287683E-01  1.59095216789E-01  1.63024868643E-01  1.67051582899E-01
  1.71177756996E-01  1.75405847594E-01  1.79738372030E-01  1.84177909819E-01
  1.88727104191E-01  1.93388663665E-01  1.98165363657E-01  2.03060048140E-01
  2.08075631329E-01  2.13215099423E-01  2.18481512378E-01  2.23878005734E-01
  2.29407792476E-01  2.35074164950E-01  2.40880496824E-01  2.46830245096E-01
  2.52926952149E-01  2.59174247868E-01  2.65575851790E-01  2.72135575329E-01
  2.78857324040E-01  2.85745099944E-01  2.92803003912E-01  3.00035238109E-01
  3.07446108490E-01  3.15040027370E-01  3.22821516046E-01  3.30795207492E-01
  3.38965849117E-01  3.47338305590E-01  3.55917561738E-01  3.64708725513E-01
  3.73717031034E-01  3.82947841700E-01  3.92406653390E-01  4.02099097729E-01
  4.12030945443E-01  4.22208109795E-01  4.32636650107E-01  4.43322775365E-01
  4.54272847916E-01  4.65493387260E-01  4.76991073925E-01  4.88772753451E-01
  5.00845440461E-01  5.13216322841E-01  5.25892766015E-01  5.38882317335E-01
  5.52192710574E-01  5.65831870525E-01  5.79807917727E-01  5.94129173295E-01
  6.08804163875E-01  6.23841626723E-01  6.39250514903E-01  6.55040002621E-01
  6.71219490686E-01  6.87798612106E-01  7.04787237825E-01  7.22195482599E-01
  7.40033711019E-01  7.58312543681E-01  7.77042863510E-01  7.96235822239E-01
  8.15902847048E-01  8.36055647370E-01  8.56706221860E-01  8.77866865540E-01
  8.99550177119E-01  9.21769066494E-01  9.44536762436E-01  9.67866820468E-01
  9.91773130934E-01  1.01626992727E+00  1.04137179447E+00  1.06709367779E+00
  1.09345089164E+00  1.12045912866E+00  1.14813446914E+00  1.17649339053E+00
  1.20555277727E+00  1.23532993087E+00  1.26584258016E+00  1.29710889189E+00
  1.32914748152E+00  1.36197742432E+00  1.39561826670E+00  1.43009003788E+00
  1.46541326182E+00  1.50160896939E+00  1.53869871093E+00  1.57670456909E+00
  1.61564917195E+00  1.65555570649E+00  1.69644793244E+00  1.73835019638E+00
  1.78128744623E+00  1.82528524615E+00  1.87036979173E+00
  </PP_RAB>
</PP_MESH>


<PP_LOCAL>
 -1.09677499941E+00 -1.09679241623E+00 -1.09680941287E+00 -1.09682599942E+00
 -1.09684218577E+00 -1.09685798153E+00 -1.09687339611E+00 -1.09688843866E+00
 -1.09690311813E+00 -1.09691744325E+00 -1.09693142253E+00 -1.09694506429E+00
 -1.09695837663E+00 -1.09697136746E+00 -1.09698404450E+00 -1.09699641529E+00
 -1.09700848717E+00 -1.09702026731E+00 -1.09703176270E+00 -1.09704298018E+00
 -1.09705392639E+00 -1.09706460783E+00 -1.09707503084E+00 -1.09708520161E+00
 -1.09709512615E+00 -1.09710481035E+00 -1.09711425996E+00 -1.09712348056E+00
 -1.09713247762E+00 -1.09714125646E+00 -1.09714982227E+00 -1.09715818012E+00
 -1.09716633494E+00 -1.09717429155E+00 -1.09718205465E+00 -1.09718962882E+00
 -1.09719701851E+00 -1.09720422808E+00 -1.09721126178E+00 -1.09721812373E+00
 -1.09722481797E+00 -1.09723134842E+00 -1.09723771892E+00 -1.09724393318E+00
 -1.09724999485E+00 -1.09725590745E+00 -1.09726167444E+00 -1.09726729917E+00
 -1.09727278491E+00 -1.09727813484E+00 -1.09728335204E+00 -1.09728843954E+00
 -1.09729340026E+00 -1.09729823706E+00 -1.09730295269E+00 -1.09730754985E+00
 -1.09731203117E+00 -1.09731639917E+00 -1.09732065632E+00 -1.09732480503E+00
 -1.09732884760E+00 -1.09733278630E+00 -1.09733662331E+00 -1.09734036073E+00
 -1.09734400062E+00 -1.09734754496E+00 -1.09735099565E+00 -1.09735435454E+00
 -1.09735762342E+00 -1.09736080400E+00 -1.09736389793E+00 -1.09736690681E+00
 -1.09736983216E+00 -1.09737267545E+00 -1.09737543807E+00 -1.09737812136E+00
 -1.09738072661E+00 -1.09738325501E+00 -1.09738570773E+00 -1.09738808584E+00
 -1.09739039038E+00 -1.09739262230E+00 -1.09739478251E+00 -1.09739687183E+00
 -1.09739889103E+00 -1.09740084082E+00 -1.09740272183E+00 -1.09740453463E+00
 -1.09740627972E+00 -1.09740795753E+00 -1.09740956844E+00 -1.09741111271E+00
 -1.09741259058E+00 -1.09741400218E+00 -1.09741534758E+00 -1.09741662676E+00
 -1.09741783965E+00 -1.09741898605E+00 -1.09742006571E+00 -1.09742107829E+00
 -1.09742202335E+00 -1.09742290037E+00 -1.09742370872E+00 -1.09742444769E+00
 -1.09742511644E+00 -1.09742571407E+00 -1.09742623953E+00 -1.09742669168E+00
 -1.09742706925E+00 -1.09742737087E+00 -1.09742759503E+00 -1.09742774008E+00
 -1.09742780426E+00 -1.09742778564E+00 -1.09742768218E+00 -1.09742749165E+00
 -1.09742721168E+00 -1.09742683973E+00 -1.09742637311E+00 -1.09742580890E+00
 -1.09742514404E+00 -1.09742437525E+00 -1.09742349905E+00 -1.09742251174E+00
 -1.09742140942E+00 -1.09742018792E+00 -1.09741884286E+00 -1.09741736958E+00
 -1.09741576316E+00 -1.09741401841E+00 -1.09741212984E+00 -1.09741009166E+00
 -1.09740789774E+00 -1.09740554164E+00 -1.09740301657E+00 -1.09740031534E+00
 -1.09739743041E+00 -1.09739435383E+00 -1.09739107721E+00 -1.09738759175E+00
 -1.09738388817E+00 -1.09737995669E+00 -1.09737578706E+00 -1.09737136848E+00
 -1.09736668959E+00 -1.09736173845E+00 -1.09735650251E+00 -1.09735096861E+00
 -1.09734512287E+00 -1.09733895075E+00 -1.09733243696E+00 -1.09732556546E+00
 -1.09731831938E+00 -1.09731068104E+00 -1.09730263185E+00 -1.09729415231E+00
 -1.09728522197E+00 -1.09727581936E+00 -1.09726592195E+00 -1.09725550610E+00
 -1.09724454704E+00 -1.09723301877E+00 -1.09722089403E+00 -1.09720814425E+00
 -1.09719473946E+00 -1.09718064828E+00 -1.09716583779E+00 -1.09715027351E+00
 -1.09713391932E+00 -1.09711673737E+00 -1.09709868805E+00 -1.09707972984E+00
 -1.09705981931E+00 -1.09703891097E+00 -1.09701695723E+00 -1.09699390829E+00
 -1.09696971207E+00 -1.09694431406E+00 -1.09691765732E+00 -1.09688968228E+00
 -1.09686032671E+00 -1.09682952559E+00 -1.09679721100E+00 -1.09676331204E+00
 -1.09672775469E+00 -1.09669046171E+00 -1.09665135255E+00 -1.09661034321E+00
 -1.09656734616E+00 -1.09652227020E+00 -1.09647502039E+00 -1.09642549789E+00
 -1.09637359992E+00 -1.09631921961E+00 -1.09626224594E+00 -1.09620256364E+00
 -1.09614005312E+00 -1.09607459037E+00 -1.09600604696E+00 -1.09593428995E+00
 -1.09585918188E+00 -1.09578058074E+00 -1.09569834004E+00 -1.09561230877E+00
 -1.09552233153E+00 -1.09542824860E+00 -1.09532989608E+00 -1.09522710609E+00
 -1.09511970696E+00 -1.09500752355E+00 -1.09489037757E+00 -1.09476808800E+00
 -1.09464047161E+00 -1.09450734349E+00 -1.09436851779E+00 -1.09422380845E+00
 -1.09407303019E+00 -1.09391599948E+00 -1.09375253582E+00 -1.09358246311E+00
 -1.09340561118E+00 -1.09322181766E+00 -1.09303092994E+00 -1.09283280753E+00
 -1.09262732461E+00 -1.09241437296E+00 -1.09219386528E+00 -1.09196573886E+00
 -1.09172995972E+00 -1.09148652724E+00 -1.09123547940E+00 -1.09097689849E+00
 -1.09071091766E+00 -1.09043772810E+00 -1.09015758707E+00 -1.08987082685E+00
 -1.08957786468E+00 -1.08927921380E+00 -1.08897549571E+00 -1.08866745378E+00
 -1.08835596833E+00 -1.08804207331E+00 -1.08772697481E+00 -1.08741207150E+00
 -1.08709897724E+00 -1.08678954608E+00 -1.08648589983E+00 -1.08619045851E+00
 -1.08590597393E+00 -1.08563556669E+00 -1.08538276697E+00 -1.08515155937E+00
 -1.08494643232E+00 -1.08477243240E+00 -1.08463522396E+00 -1.08454115470E+00
 -1.08449732755E+00 -1.08451167960E+00 -1.08459306849E+00 -1.08475136718E+00
 -1.08499756753E+00 -1.08534389368E+00 -1.08580392585E+00 -1.08639273560E+00
 -1.08712703329E+00 -1.08802532885E+00 -1.08910810675E+00 -1.09039801629E+00
 -1.09192007833E+00 -1.09370190953E+00 -1.09577396532E+00 -1.09816980274E+00
 -1.10092636435E+00 -1.10408428431E+00 -1.10768821783E+00 -1.11178719494E+00
 -1.11643499951E+00 -1.12169057426E+00 -1.12761845235E+00 -1.13428921569E+00
 -1.14177997980E+00 -1.15017490477E+00 -1.15956573078E+00 -1.17005233645E+00
 -1.18174331690E+00 -1.19475657759E+00 -1.20921993838E+00 -1.22527174080E+00
 -1.24306144933E+00 -1.26275023545E+00 -1.28451152990E+00 -1.30853152593E+00
 -1.33500961194E+00 -1.36415870782E+00 -1.39620547382E+00 -1.43139035526E+00
 -1.46996741932E+00 -1.51220393293E+00 -1.55837962207E+00 -1.60878554396E+00
 -1.66372249332E+00 -1.72349885354E+00 -1.78842779260E+00 -1.85882369267E+00
 -1.93499769195E+00 -2.01725220826E+00 -2.10587430709E+00 -2.20112777334E+00
 -2.30324374804E+00 -2.41240980071E+00 -2.52875732641E+00 -2.65234718903E+00
 -2.78315358004E+00 -2.92104613058E+00 -3.06577040813E+00 -3.21692705144E+00
 -3.37394995344E+00 -3.53608409545E+00 -3.70236386903E+00 -3.87159299451E+00
 -4.04232745421E+00 -4.21286319459E+00 -4.38123070028E+00 -4.54519887902E+00
 -4.70229098633E+00 -4.84981551395E+00 -4.98491500738E+00 -5.10463559145E+00
 -5.20601948552E+00 -5.28622189145E+00 -5.34265224945E+00 -5.37313790082E+00
 -5.37610561384E+00 -5.35077318737E+00 -5.29733943186E+00 -5.21715622028E+00
 -5.11286090925E+00 -4.98844097597E+00 -4.84919456027E+00 -4.70153952796E+00
 -4.55260768162E+00 -4.40953700694E+00 -4.27834001895E+00 -4.16217747596E+00
 -4.05880307981E+00 -3.96031919721E+00 -3.86434973101E+00 -3.77080537485E+00
 -3.67960444251E+00 -3.59067172782E+00 -3.50393754099E+00 -3.41933689804E+00
 -3.33680884208E+00 -3.25629587700E+00 -3.17774349675E+00 -3.10109979493E+00
 -3.02631514204E+00 -2.95334191894E+00 -2.88213429712E+00 -2.81264805766E+00
 -2.74484044192E+00 -2.67867002832E+00 -2.61409663037E+00 -2.55108121194E+00
 -2.48958581645E+00 -2.42957350737E+00 -2.37100831763E+00 -2.31385520634E+00
 -2.25808002125E+00 -2.20364946573E+00 -2.15053106951E+00 -2.09869316218E+00
 -2.04810484917E+00 -1.99873598945E+00 -1.95055717480E+00 -1.90353971027E+00
 -1.85765559564E+00 -1.81287750772E+00 -1.76917878339E+00 -1.72653340317E+00
 -1.68491597544E+00 -1.64430172105E+00 -1.60466645841E+00 -1.56598658901E+00
 -1.52823908327E+00 -1.49140146683E+00 -1.45545180707E+00 -1.42036870011E+00
 -1.38613125800E+00 -1.35271909630E+00 -1.32011232194E+00 -1.28829152136E+00
 -1.25723774896E+00 -1.22693251582E+00 -1.19735777868E+00 -1.16849592923E+00
 -1.14032978357E+00 -1.11284257204E+00 -1.08601792919E+00 -1.05983988406E+00
 -1.03429285065E+00 -1.00936161867E+00 -9.85031344457E-01 -9.61287542166E-01
 -9.38116075111E-01 -9.15503147370E-01 -8.93435295570E-01 -8.71899380863E-01
 -8.50882581109E-01 -8.30372383243E-01 -8.10356575820E-01 -7.90823241749E-01
 -7.71760751195E-01 -7.53157754655E-01 -7.35003176202E-01 -7.17286206892E-01
 -6.99996298324E-01 -6.83123156361E-01 -6.66656735007E-01 -6.50587230416E-01
 -6.34905075061E-01 -6.19600932040E-01 -6.04665689509E-01 -5.90090455264E-01
 -5.75866551444E-01 -5.61985509362E-01 -5.48439064470E-01 -5.35219151430E-01
 -5.22317899316E-01 -5.09727626931E-01 -4.97440838227E-01 -4.85450217846E-01
 -4.73748626765E-01 -4.62329098044E-01 -4.51184832676E-01 -4.40309195546E-01
 -4.29695711473E-01 -4.19338061358E-01 -4.09230078421E-01 -3.99365744531E-01
 -3.89739186621E-01 -3.80344673193E-01 -3.71176610904E-01 -3.62229541235E-01
 -3.53498137246E-01 -3.44977200396E-01 -3.36661657457E-01 -3.28546557487E-01
 -3.20627068885E-01 -3.12898476515E-01 -3.05356178897E-01 -2.97995685466E-01
 -2.90812613902E-01 -2.83802687520E-01 -2.76961732722E-01 -2.70285676512E-01
 -2.63770544074E-01 -2.57412456401E-01 -2.51207627989E-01 -2.45152364584E-01