                                                                                      
                                       ``:oss/                                        
                           `.+s+.     .+ys--yh+     `./ss+.                           
                          -sh//yy+`   +yy   +yy    -+h+-oyy                           
                          -yh- .oyy/.-sh.   .syo-.:sy-  /yh                           
                 `.-.`    `yh+   -oyyyo.     `/syys:    oys      `.`                  
               `/+ssys+-` `sh+      `                   oys`   .:osyo`                
               -yh- ./syyooyo`                          .sys+/oyo--yh/                
               `yy+    .-:-.                             `-/+/:`  -sh-                
                /yh.                                              oys                 
          ``..---hho---------`   .---------..`      `.-----.`    -hd+---.             
       `./osmNMMMMMMMMMMMMMMMs. +NNMMMMMMMMNNmh+.   yNMMMMMNm-  oNMMMMMNmo++:`        
       +sy--/sdMMMhyyyyyyyNMMh- .oyNMMmyyyyyhNMMm+` -yMMMdyyo:` .oyyNMMNhs+syy`       
       -yy/   /MMM+.`-+/``mMMy-   `mMMh:`````.dMMN:` `MMMy-`-dhhy```mMMy:``+hs        
        -yy+` /MMMo:-mMM+`-oo/.    mMMh:     `dMMN/`  dMMm:`dMMMMy..MMMo-.+yo`        
         .sys`/MMMMNNMMMs-         mMMmyooooymMMNo:   oMMM/sMMMMMM++MMN//oh:          
          `sh+/MMMhyyMMMs- `-`     mMMMMMMMMMNmy+-`   -MMMhMMMsmMMmdMMd/yy+           
    `-/+++oyy-/MMM+.`/hh/.`mNm:`   mMMd+/////:-.`      NMMMMMd/:NMMMMMy:/yyo/:.`      
   +os+//:-..-oMMMo:--:::-/MMMo. .-mMMd+---`           hMMMMN+. oMMMMMo. `-+osyso:`   
   syo     `mNMMMMMNNNNNNNNMMMo.oNNMMMMMNNNN:`         +MMMMs:`  dMMMN/`     ``:syo   
   /yh`     :syyyyyyyyyyyyyyyy+.`+syyyyyyyyo:`         .oyys:`   .oyys:`        +yh   
   -yh-        ````````````````    `````````              ``        ``          oys   
   -+h/------------------------::::::::://////++++++++++++++++++++++///////::::/yd:   
   shdddddddddddddddddddddddddddddhhhhhhhhyyyyyssssssssssssssssyyyyyyyhhhhhhhddddh`   
                                                                                      
  S. Ponce, E. R. Margine, C. Verdi, and F. Giustino,                                 
                                                Comput. Phys. Commun. 209, 116 (2016) 
                                                                                      

     Program EPW v.5.1.0 starts on 11Jun2019 at 21:11:52 

     This program is part of the open-source Quantum ESPRESSO suite
     for quantum simulation of materials; please cite
         "P. Giannozzi et al., J. Phys.:Condens. Matter 21 395502 (2009);
         "P. Giannozzi et al., J. Phys.:Condens. Matter 29 465901 (2017);
          URL http://www.quantum-espresso.org", 
     in publications or presentations arising from this work. More details at
     http://www.quantum-espresso.org/quote

     Parallel version (MPI), running on  1496 processors

     MPI processes distributed on    22 nodes
     K-points division:     npool     =    1496
                      
     ------------------------------------------------------------------------ 
                   RESTART - RESTART - RESTART - RESTART                         
     Restart is done without reading PWSCF save file.                  
     Be aware that some consistency checks are therefore not done.                  
     ------------------------------------------------------------------------ 
                      

     --                                                                         

     bravais-lattice index     =            0
     lattice parameter (a_0)   =       0.0000  a.u.
     unit-cell volume          =       0.0000 (a.u.)^3
     number of atoms/cell      =            0
     number of atomic types    =            0
     kinetic-energy cut-off    =       0.0000  Ry
     charge density cut-off    =       0.0000  Ry
     Exchange-correlation      = not set (-1 -1 -1 -1-1-1)


     celldm(1)=    0.00000  celldm(2)=    0.00000  celldm(3)=    0.00000
     celldm(4)=    0.00000  celldm(5)=    0.00000  celldm(6)=    0.00000

     crystal axes: (cart. coord. in units of a_0)
               a(1) = (  0.0000  0.0000  0.0000 )  
               a(2) = (  0.0000  0.0000  0.0000 )  
               a(3) = (  0.0000  0.0000  0.0000 )  

     reciprocal axes: (cart. coord. in units 2 pi/a_0)
               b(1) = (  0.0000  0.0000  0.0000 )  
               b(2) = (  0.0000  0.0000  0.0000 )  
               b(3) = (  0.0000  0.0000  0.0000 )  


     Atoms inside the unit cell: 

   Cartesian axes

     site n.  atom      mass           positions (a_0 units)

 
     No symmetry!
                                    s                        frac. trans.

     G cutoff =    0.0000  (      0 G-vectors)     FFT grid: (  0,  0,  0)
     number of k points=    0
                       cart. coord. in units 2pi/a_0

                       cryst. coord.
     EPW          :      0.02s CPU      0.14s WALL

     EPW          :      0.02s CPU      0.14s WALL

     No wavefunction gauge setting applied

     -------------------------------------------------------------------
     Using BAs.ukk from disk
     -------------------------------------------------------------------


     Using kmap and kgmap from disk

     Do not need to read .epb files; read .fmt files


     Band disentanglement is used:  nbndsub =    8

     Computes the analytic long-range interaction for polar materials [lpolar]
      
     Use zone-centred Wigner-Seitz cells 
     Number of WS vectors for electrons      279
     Number of WS vectors for phonons      279
     Number of WS vectors for electron-phonon      279
     Maximum number of cores for efficient parallelization     1674
     Results may improve by using use_ws == .true. 

     Reading Hamiltonian, Dynamical matrix and EP vertex in Wann rep from file


     Reading interatomic force constants

     Read Z* and epsilon
     IFC last   -0.0000479
      Imposed simple ASR

     Finished reading ifcs


     Finished reading Wann rep data from file

     ===================================================================
     Memory usage:  VmHWM =        16Mb
                   VmPeak =      1835Mb
     ===================================================================
     
     Using uniform q-mesh:  120 120 120
     Size of q point mesh for interpolation:    1728000
     Using uniform MP k-mesh:  120 120 120
     Size of k point mesh for interpolation:      77562
     Max number of k points per pool:               52

     Fermi energy coarse grid =   0.000000 eV

     ===================================================================

     Fermi energy is read from the input file: Ef =   9.175000 eV

     ===================================================================

              ibndmin =     2  ebndmin =     0.613
              ibndmax =     5  ebndmax =     0.736


     Number of ep-matrix elements per pool :         2496 ~=   19.50 Kb (@ 8 bytes/ DP)
      
     A selecq.fmt file was found but re-created because selecqread == .false. 
     Number selected, total     500    1216
     Number selected, total    1000    3139
     Number selected, total    1500    4479
     Number selected, total    2000    5706
     Number selected, total    2500    6900
     Number selected, total    3000    8119
     Number selected, total    3500    9323
     Number selected, total    4000   10744
     Number selected, total    4500   12497
     Number selected, total    5000   13661
     Number selected, total    5500   14761
     Number selected, total    6000   16077
     Number selected, total    6500   18037
     Number selected, total    7000   19264
     Number selected, total    7500   20567
     Number selected, total    8000   21684
     Number selected, total    8500   22979
     Number selected, total    9000   24199
     Number selected, total    9500   25870
     Number selected, total   10000   27352
     Number selected, total   10500   28431
     Number selected, total   11000   29538
     Number selected, total   11500   31103
     Number selected, total   12000   32921
     Number selected, total   12500   34146
     Number selected, total   13000   35439
     Number selected, total   13500   36574
     Number selected, total   14000   37865
     Number selected, total   14500   39190
     Number selected, total   15000   41025
     Number selected, total   15500   42225
     Number selected, total   16000   43304
     Number selected, total   16500   44514
     Number selected, total   17000   46474
     Number selected, total   17500   47941
     Number selected, total   18000   49262
     Number selected, total   18500   50474
     Number selected, total   19000   51697
     Number selected, total   19500   53011
     Number selected, total   20000   54684
     Number selected, total   20500   56260
     Number selected, total   21000   57264
     Number selected, total   21500   58428
     Number selected, total   22000   60024
     Number selected, total   22500   61974
     Number selected, total   23000   63297
     Number selected, total   23500   64611
     Number selected, total   24000   65836
     Number selected, total   24500   67153
     Number selected, total   25000   68711
     Number selected, total   25500   70451
     Number selected, total   26000   71528
     Number selected, total   26500   72608
     Number selected, total   27000   74162
     Number selected, total   27500   76362
     Number selected, total   28000   77714
     Number selected, total   28500   79127
     Number selected, total   29000   80359
     Number selected, total   29500   81781
     Number selected, total   30000   83597
     Number selected, total   30500   85184
     Number selected, total   31000   86177
     Number selected, total   31500   87271
     Number selected, total   32000   89182
     Number selected, total   32500   91356
     Number selected, total   33000   92807
     Number selected, total   33500   94147
     Number selected, total   34000   95460
     Number selected, total   34500   97048
     Number selected, total   35000   98897
     Number selected, total   35500  100191
     Number selected, total   36000  101183
     Number selected, total   36500  102611
     Number selected, total   37000  105182
     Number selected, total   37500  106852
     Number selected, total   38000  108408
     Number selected, total   38500  109647
     Number selected, total   39000  111309
     Number selected, total   39500  113131
     Number selected, total   40000  114482
     Number selected, total   40500  115466
     Number selected, total   41000  116777
     Number selected, total   41500  119430
     Number selected, total   42000  121478
     Number selected, total   42500  123071
     Number selected, total   43000  124409
     Number selected, total   43500  126104
     Number selected, total   44000  127927
     Number selected, total   44500  129221
     Number selected, total   45000  130211
     Number selected, total   45500  131758
     Number selected, total   46000  135400
     Number selected, total   46500  137328
     Number selected, total   47000  138682
     Number selected, total   47500  140383
     Number selected, total   48000  142207
     Number selected, total   48500  143550
     Number selected, total   49000  144602
     Number selected, total   49500  146056
     Number selected, total   50000  152106
     Number selected, total   50500  153803
     Number selected, total   51000  155609
     Number selected, total   51500  157429
     Number selected, total   52000  158512
     Number selected, total   52500  159634
     Number selected, total   53000  165546
     Number selected, total   53500  167487
     Number selected, total   54000  169395
     Number selected, total   54500  171252
     Number selected, total   55000  172667
     Number selected, total   55500  173763
     Number selected, total   56000  175464
     Number selected, total   56500  181637
     Number selected, total   57000  183552
     Number selected, total   57500  185627
     Number selected, total   58000  187078
     Number selected, total   58500  188196
     Number selected, total   59000  194471
     Number selected, total   59500  196754
     Number selected, total   60000  198922
     Number selected, total   60500  201223
     Number selected, total   61000  202677
     Number selected, total   61500  211886
     Number selected, total   62000  216380
     Number selected, total   62500  225320
     Number selected, total   63000  230534
     Number selected, total   63500  239345
     Number selected, total   64000  244824
     Number selected, total   64500  253628
     Number selected, total   65000  259325
     Number selected, total   65500  268276
     Number selected, total   66000  273979
     Number selected, total   66500  283525
     Number selected, total   67000  289084
     Number selected, total   67500  302178
     Number selected, total   68000  312436
     Number selected, total   68500  325390
     Number selected, total   69000  340153
     Number selected, total   69500  469915
     Number selected, total   70000  484315
     Number selected, total   70500  493325
     Number selected, total   71000  502137
     Number selected, total   71500  504429
     Number selected, total   72000  512146
     Number selected, total   72500  517222
     Number selected, total   73000  521527
     Number selected, total   73500  525821
     Number selected, total   74000  531053
     Number selected, total   74500  532355
     Number selected, total   75000  536765
     Number selected, total   75500  540594
     Number selected, total   76000  545452
     Number selected, total   76500  546667
     Number selected, total   77000  550448
     Number selected, total   77500  552237
     Number selected, total   78000  556322
     Number selected, total   78500  560338
     Number selected, total   79000  561430
     Number selected, total   79500  565331
     Number selected, total   80000  566879
     Number selected, total   80500  570722
     Number selected, total   81000  574622
     Number selected, total   81500  575713
     Number selected, total   82000  577395
     Number selected, total   82500  580905
     Number selected, total   83000  584139
     Number selected, total   83500  588293
     Number selected, total   84000  589617
     Number selected, total   84500  590688
     Number selected, total   85000  594464
     Number selected, total   85500  595906
     Number selected, total   86000  599148
     Number selected, total   86500  603055
     Number selected, total   87000  604252
     Number selected, total   87500  605320
     Number selected, total   88000  609004
     Number selected, total   88500  610437
     Number selected, total   89000  613429
     Number selected, total   89500  617316
     Number selected, total   90000  618542
     Number selected, total   90500  619613
     Number selected, total   91000  623271
     Number selected, total   91500  624616
     Number selected, total   92000  627242
     Number selected, total   92500  629524
     Number selected, total   93000  632682
     Number selected, total   93500  633763
     Number selected, total   94000  635355
     Number selected, total   94500  638538
     Number selected, total   95000  640426
     Number selected, total   95500  642848
     Number selected, total   96000  646495
     Number selected, total   96500  647682
     Number selected, total   97000  648754
     Number selected, total   97500  652312
     Number selected, total   98000  653642
     Number selected, total   98500  656030
     Number selected, total   99000  658087
     Number selected, total   99500  661378
     Number selected, total  100000  662472
     Number selected, total  100500  663794
     Number selected, total  101000  667210
     Number selected, total  101500  668636
     Number selected, total  102000  671154
     Number selected, total  102500  674819
     Number selected, total  103000  676228
     Number selected, total  103500  677313
     Number selected, total  104000  680413
     Number selected, total  104500  682179
     Number selected, total  105000  683877
     Number selected, total  105500  686165
     Number selected, total  106000  689803
     Number selected, total  106500  691010
     Number selected, total  107000  692099
     Number selected, total  107500  695645
     Number selected, total  108000  696974
     Number selected, total  108500  699104
     Number selected, total  109000  701055
     Number selected, total  109500  704564
     Number selected, total  110000  705752
     Number selected, total  110500  707000
     Number selected, total  111000  710527
     Number selected, total  111500  711948
     Number selected, total  112000  714231
     Number selected, total  112500  716413
     Number selected, total  113000  719449
     Number selected, total  113500  720563
     Number selected, total  114000  722487
     Number selected, total  114500  725531
     Number selected, total  115000  727198
     Number selected, total  115500  729379
     Number selected, total  116000  733121
     Number selected, total  116500  734350
     Number selected, total  117000  735547
     Number selected, total  117500  739200
     Number selected, total  118000  740536
     Number selected, total  118500  742676
     Number selected, total  119000  744726
     Number selected, total  119500  748136
     Number selected, total  120000  749347
     Number selected, total  120500  751038
     Number selected, total  121000  754423
     Number selected, total  121500  755987
     Number selected, total  122000  758286
     Number selected, total  122500  762051
     Number selected, total  123000  763367
     Number selected, total  123500  764704
     Number selected, total  124000  768351
     Number selected, total  124500  769700
     Number selected, total  125000  771963
     Number selected, total  125500  775625
     Number selected, total  126000  777404
     Number selected, total  126500  778635
     Number selected, total  127000  782171
     Number selected, total  127500  783740
     Number selected, total  128000  785760
     Number selected, total  128500  787812
     Number selected, total  129000  791557
     Number selected, total  129500  792886
     Number selected, total  130000  794585
     Number selected, total  130500  797987
     Number selected, total  131000  799671
     Number selected, total  131500  801717
     Number selected, total  132000  805600
     Number selected, total  132500  806953
     Number selected, total  133000  808526
     Number selected, total  133500  812143
     Number selected, total  134000  813489
     Number selected, total  134500  815543
     Number selected, total  135000  819531
     Number selected, total  135500  820989
     Number selected, total  136000  822553
     Number selected, total  136500  826187
     Number selected, total  137000  827540
     Number selected, total  137500  829441
     Number selected, total  138000  831737
     Number selected, total  138500  834901
     Number selected, total  139000  836478
     Number selected, total  139500  838400
     Number selected, total  140000  841701
     Number selected, total  140500  843362
     Number selected, total  141000  845304
     Number selected, total  141500  848943
     Number selected, total  142000  850513
     Number selected, total  142500  852316
     Number selected, total  143000  855959
     Number selected, total  143500  857400
     Number selected, total  144000  859322
     Number selected, total  144500  862986
     Number selected, total  145000  864546
     Number selected, total  145500  866464
     Number selected, total  146000  870244
     Number selected, total  146500  871670
     Number selected, total  147000  873484
     Number selected, total  147500  877251
     Number selected, total  148000  878713
     Number selected, total  148500  880868
     Number selected, total  149000  884772
     Number selected, total  149500  886205
     Number selected, total  150000  888019
     Number selected, total  150500  891782
     Number selected, total  151000  893585
     Number selected, total  151500  896118
     Number selected, total  152000  899999
     Number selected, total  152500  901447
     Number selected, total  153000  905710
     Number selected, total  153500  907252
     Number selected, total  154000  909680
     Number selected, total  154500  913798
     Number selected, total  155000  915222
     Number selected, total  155500  916949
     Number selected, total  156000  920713
     Number selected, total  156500  922493
     Number selected, total  157000  924792
     Number selected, total  157500  928567
     Number selected, total  158000  929894
     Number selected, total  158500  931829
     Number selected, total  159000  935329
     Number selected, total  159500  937030
     Number selected, total  160000  939315
     Number selected, total  160500  943057
     Number selected, total  161000  944296
     Number selected, total  161500  945992
     Number selected, total  162000  949519
     Number selected, total  162500  951069
     Number selected, total  163000  953458
     Number selected, total  163500  957219
     Number selected, total  164000  958462
     Number selected, total  164500  959796
     Number selected, total  165000  963550
     Number selected, total  165500  964980
     Number selected, total  166000  967147
     Number selected, total  166500  969320
     Number selected, total  167000  972472
     Number selected, total  167500  973669
     Number selected, total  168000  977120
     Number selected, total  168500  978683
     Number selected, total  169000  980465
     Number selected, total  169500  982647
     Number selected, total  170000  986290
     Number selected, total  170500  987508
     Number selected, total  171000  988818
     Number selected, total  171500  992455
     Number selected, total  172000  993799
     Number selected, total  172500  995959
     Number selected, total  173000  998115
     Number selected, total  173500 1001296
     Number selected, total  174000 1002479
     Number selected, total  174500 1004192
     Number selected, total  175000 1007362
     Number selected, total  175500 1008902
     Number selected, total  176000 1011192
     Number selected, total  176500 1014857
     Number selected, total  177000 1016173
     Number selected, total  177500 1017265
     Number selected, total  178000 1020902
     Number selected, total  178500 1022249
     Number selected, total  179000 1024257
     Number selected, total  179500 1026320
     Number selected, total  180000 1029852
     Number selected, total  180500 1031042
     Number selected, total  181000 1032269
     Number selected, total  181500 1035807
     Number selected, total  182000 1037234
     Number selected, total  182500 1039504
     Number selected, total  183000 1041558
     Number selected, total  183500 1044730
     Number selected, total  184000 1045820
     Number selected, total  184500 1047392
     Number selected, total  185000 1050668
     Number selected, total  185500 1052218
     Number selected, total  186000 1054628
     Number selected, total  186500 1058390
     Number selected, total  187000 1059613
     Number selected, total  187500 1060687
     Number selected, total  188000 1064338
     Number selected, total  188500 1065689
     Number selected, total  189000 1067947
     Number selected, total  189500 1070113
     Number selected, total  190000 1073522
     Number selected, total  190500 1074609
     Number selected, total  191000 1075954
     Number selected, total  191500 1079468
     Number selected, total  192000 1081023
     Number selected, total  192500 1083558
     Number selected, total  193000 1087429
     Number selected, total  193500 1088633
     Number selected, total  194000 1089632
     Number selected, total  194500 1093379
     Number selected, total  195000 1094820
     Number selected, total  195500 1097348
     Number selected, total  196000 1099641
     Number selected, total  196500 1102792
     Number selected, total  197000 1103799
     Number selected, total  197500 1107440
     Number selected, total  198000 1108977
     Number selected, total  198500 1111503
     Number selected, total  199000 1113795
     Number selected, total  199500 1117188
     Number selected, total  200000 1118199
     Number selected, total  200500 1121949
     Number selected, total  201000 1123500
     Number selected, total  201500 1126275
     Number selected, total  202000 1130173
     Number selected, total  202500 1131863
     Number selected, total  203000 1132931
     Number selected, total  203500 1136841
     Number selected, total  204000 1138404
     Number selected, total  204500 1141766
     Number selected, total  205000 1145785
     Number selected, total  205500 1146952
     Number selected, total  206000 1150534
     Number selected, total  206500 1152335
     Number selected, total  207000 1155804
     Number selected, total  207500 1160151
     Number selected, total  208000 1161270
     Number selected, total  208500 1165044
     Number selected, total  209000 1166945
     Number selected, total  209500 1170924
     Number selected, total  210000 1175072
     Number selected, total  210500 1176165
     Number selected, total  211000 1180747
     Number selected, total  211500 1184841
     Number selected, total  212000 1189557
     Number selected, total  212500 1190679
     Number selected, total  213000 1195628
     Number selected, total  213500 1203268
     Number selected, total  214000 1204926
     Number selected, total  214500 1346578
     Number selected, total  215000 1379760
     Number selected, total  215500 1394856
     Number selected, total  216000 1409143
     Number selected, total  216500 1419914
     Number selected, total  217000 1432495
     Number selected, total  217500 1438414
     Number selected, total  218000 1448473
     Number selected, total  218500 1453425
     Number selected, total  219000 1463468
     Number selected, total  219500 1467824
     Number selected, total  220000 1477016
     Number selected, total  220500 1481398
     Number selected, total  221000 1489614
     Number selected, total  221500 1492039
     Number selected, total  222000 1495321
     Number selected, total  222500 1496865
     Number selected, total  223000 1504620
     Number selected, total  223500 1506907
     Number selected, total  224000 1509606
     Number selected, total  224500 1510924
     Number selected, total  225000 1517087
     Number selected, total  225500 1519749
     Number selected, total  226000 1521913
     Number selected, total  226500 1524213
     Number selected, total  227000 1525419
     Number selected, total  227500 1527113
     Number selected, total  228000 1533285
     Number selected, total  228500 1535228
     Number selected, total  229000 1537518
     Number selected, total  229500 1538994
     Number selected, total  230000 1540183
     Number selected, total  230500 1541886
     Number selected, total  231000 1546962
     Number selected, total  231500 1548647
     Number selected, total  232000 1550486
     Number selected, total  232500 1552560
     Number selected, total  233000 1553758
     Number selected, total  233500 1554965
     Number selected, total  234000 1557013
     Number selected, total  234500 1560537
     Number selected, total  235000 1562463
     Number selected, total  235500 1564155
     Number selected, total  236000 1566192
     Number selected, total  236500 1567675
     Number selected, total  237000 1568735
     Number selected, total  237500 1570077
     Number selected, total  238000 1572986
     Number selected, total  238500 1575290
     Number selected, total  239000 1576869
     Number selected, total  239500 1578443
     Number selected, total  240000 1580365
     Number selected, total  240500 1581973
     Number selected, total  241000 1583029
     Number selected, total  241500 1584247
     Number selected, total  242000 1586657
     Number selected, total  242500 1588842
     Number selected, total  243000 1590545
     Number selected, total  243500 1591880
     Number selected, total  244000 1593542
     Number selected, total  244500 1595365
     Number selected, total  245000 1596729
     Number selected, total  245500 1597782
     Number selected, total  246000 1599124
     Number selected, total  246500 1601686
     Number selected, total  247000 1603363
     Number selected, total  247500 1604936
     Number selected, total  248000 1606258
     Number selected, total  248500 1607814
     Number selected, total  249000 1609564
     Number selected, total  249500 1611017
     Number selected, total  250000 1612065
     Number selected, total  250500 1613273
     Number selected, total  251000 1615466
     Number selected, total  251500 1617288
     Number selected, total  252000 1618749
     Number selected, total  252500 1620086
     Number selected, total  253000 1621497
     Number selected, total  253500 1622958
     Number selected, total  254000 1624792
     Number selected, total  254500 1625974
     Number selected, total  255000 1626974
     Number selected, total  255500 1628402
     Number selected, total  256000 1630711
     Number selected, total  256500 1632152
     Number selected, total  257000 1633509
     Number selected, total  257500 1634827
     Number selected, total  258000 1636161
     Number selected, total  258500 1637612
     Number selected, total  259000 1639445
     Number selected, total  259500 1640542
     Number selected, total  260000 1641611
     Number selected, total  260500 1643151
     Number selected, total  261000 1645242
     Number selected, total  261500 1646577
     Number selected, total  262000 1647910
     Number selected, total  262500 1649222
     Number selected, total  263000 1650542
     Number selected, total  263500 1651980
     Number selected, total  264000 1653731
     Number selected, total  264500 1654915
     Number selected, total  265000 1655983
     Number selected, total  265500 1657320
     Number selected, total  266000 1659410
     Number selected, total  266500 1660731
     Number selected, total  267000 1662056
     Number selected, total  267500 1663284
     Number selected, total  268000 1664585
     Number selected, total  268500 1665922
     Number selected, total  269000 1667751
     Number selected, total  269500 1668985
     Number selected, total  270000 1670052
     Number selected, total  270500 1671227
     Number selected, total  271000 1673180
     Number selected, total  271500 1674640
     Number selected, total  272000 1675956
     Number selected, total  272500 1677166
     Number selected, total  273000 1678396
     Number selected, total  273500 1679704
     Number selected, total  274000 1681148
     Number selected, total  274500 1682880
     Number selected, total  275000 1684051
     Number selected, total  275500 1685135
     Number selected, total  276000 1686497
     Number selected, total  276500 1688454
     Number selected, total  277000 1689749
     Number selected, total  277500 1690973
     Number selected, total  278000 1692181
     Number selected, total  278500 1693404
     Number selected, total  279000 1694720
     Number selected, total  279500 1696578
     Number selected, total  280000 1697875
     Number selected, total  280500 1698962
     Number selected, total  281000 1700151
     Number selected, total  281500 1701977
     Number selected, total  282000 1703434
     Number selected, total  282500 1704661
     Number selected, total  283000 1705860
     Number selected, total  283500 1707078
     Number selected, total  284000 1708292
     Number selected, total  284500 1709702
     Number selected, total  285000 1711557
     Number selected, total  285500 1712737
     Number selected, total  286000 1713831
     Number selected, total  286500 1715142
     Number selected, total  287000 1717096
     Number selected, total  287500 1718322
     Number selected, total  288000 1719551
     Number selected, total  288500 1720736
     Number selected, total  289000 1721959
     Number selected, total  289500 1723170
     Number selected, total  290000 1724727
     Number selected, total  290500 1726424
     Number selected, total  291000 1727514
     We only need to compute   291222 q-points
      
     Restart from tau_CB:     101500/    291222
     Restart from tau:     101500/    291222
     Progression iq (fine) =     101500/    291222

     Temperature  300.000 K
     Valence band maximum    =   8.646502 eV
     Conduction band minimum =   9.739651 eV
     Mobility VB Fermi level   8.721302 eV
     Valence band maximum    =   8.646502 eV
     Conduction band minimum =   9.739651 eV
     Mobility CB Fermi level   9.643036 eV
     Progression iq (fine) =     102000/    291222
     Creation of a restart point

     ===================================================================
     Temp [K]  Fermi [eV]  Hole density [cm^-3]  Hole mobility [cm^2/Vs]
     ===================================================================

      300.000      8.7213       0.999994E+18       0.273395E+04  x-axis
                                                   0.277858E+04  y-axis
                                                   0.282577E+04  z-axis
                                                   0.277943E+04     avg

     ===================================================================
     Temp [K]  Fermi [eV]  Elec density [cm^-3]  Elec mobility [cm^2/Vs]
     ===================================================================

      300.000      9.6430       0.100001E+19       0.362256E+04  x-axis
                                                   0.370430E+04  y-axis
                                                   0.381448E+04  z-axis
                                                   0.371378E+04     avg

     Note: Mobility are sorted by ascending values and might not correspond
                                              to the expected (x,y,z) axis.

     Total time so far
     SCAT         :     72.55s CPU     72.94s WALL (     501 calls)
     MOB          :     72.42s CPU     72.76s WALL (       1 calls)

     Progression iq (fine) =     102500/    291222
     Creation of a restart point

     ===================================================================
     Temp [K]  Fermi [eV]  Hole density [cm^-3]  Hole mobility [cm^2/Vs]
     ===================================================================

      300.000      8.7213       0.999994E+18       0.273395E+04  x-axis
                                                   0.277858E+04  y-axis
                                                   0.282577E+04  z-axis
                                                   0.277943E+04     avg

     ===================================================================
     Temp [K]  Fermi [eV]  Elec density [cm^-3]  Elec mobility [cm^2/Vs]
     ===================================================================

      300.000      9.6430       0.100001E+19       0.360295E+04  x-axis
                                                   0.368470E+04  y-axis
                                                   0.379427E+04  z-axis
                                                   0.369397E+04     avg

     Note: Mobility are sorted by ascending values and might not correspond
                                              to the expected (x,y,z) axis.

     Total time so far
     SCAT         :    144.57s CPU    145.09s WALL (    1002 calls)
     MOB          :    144.37s CPU    144.83s WALL (       2 calls)

     Progression iq (fine) =     103000/    291222
     Creation of a restart point

     ===================================================================
     Temp [K]  Fermi [eV]  Hole density [cm^-3]  Hole mobility [cm^2/Vs]
     ===================================================================

      300.000      8.7213       0.999994E+18       0.273395E+04  x-axis
                                                   0.277858E+04  y-axis
                                                   0.282577E+04  z-axis
                                                   0.277943E+04     avg

     ===================================================================
     Temp [K]  Fermi [eV]  Elec density [cm^-3]  Elec mobility [cm^2/Vs]
     ===================================================================

      300.000      9.6430       0.100001E+19       0.359682E+04  x-axis
                                                   0.367812E+04  y-axis
                                                   0.378763E+04  z-axis
                                                   0.368752E+04     avg

     Note: Mobility are sorted by ascending values and might not correspond
                                              to the expected (x,y,z) axis.

     Total time so far
     SCAT         :    216.46s CPU    217.20s WALL (    1503 calls)
     MOB          :    216.20s CPU    216.84s WALL (       3 calls)

     Progression iq (fine) =     103500/    291222
     Creation of a restart point

     ===================================================================
     Temp [K]  Fermi [eV]  Hole density [cm^-3]  Hole mobility [cm^2/Vs]
     ===================================================================

      300.000      8.7213       0.999994E+18       0.273395E+04  x-axis
                                                   0.277858E+04  y-axis
                                                   0.282577E+04  z-axis
                                                   0.277943E+04     avg

     ===================================================================
     Temp [K]  Fermi [eV]  Elec density [cm^-3]  Elec mobility [cm^2/Vs]
     ===================================================================

      300.000      9.6430       0.100001E+19       0.351784E+04  x-axis
                                                   0.359784E+04  y-axis
                                                   0.370557E+04  z-axis
                                                   0.360708E+04     avg

     Note: Mobility are sorted by ascending values and might not correspond
                                              to the expected (x,y,z) axis.

     Total time so far
     SCAT         :    288.55s CPU    289.58s WALL (    2004 calls)
     MOB          :    288.14s CPU    289.05s WALL (       4 calls)

     Progression iq (fine) =     104000/    291222
     Creation of a restart point

     ===================================================================
     Temp [K]  Fermi [eV]  Hole density [cm^-3]  Hole mobility [cm^2/Vs]
     ===================================================================

      300.000      8.7213       0.999994E+18       0.273395E+04  x-axis
                                                   0.277858E+04  y-axis
                                                   0.282577E+04  z-axis
                                                   0.277943E+04     avg

     ===================================================================
     Temp [K]  Fermi [eV]  Elec density [cm^-3]  Elec mobility [cm^2/Vs]
     ===================================================================

      300.000      9.6430       0.100001E+19       0.349880E+04  x-axis
                                                   0.357911E+04  y-axis
                                                   0.368627E+04  z-axis
                                                   0.358806E+04     avg

     Note: Mobility are sorted by ascending values and might not correspond
                                              to the expected (x,y,z) axis.

     Total time so far
     SCAT         :    360.51s CPU    361.72s WALL (    2505 calls)
     MOB          :    360.02s CPU    361.09s WALL (       5 calls)

     Progression iq (fine) =     104500/    291222
     Creation of a restart point

     ===================================================================
     Temp [K]  Fermi [eV]  Hole density [cm^-3]  Hole mobility [cm^2/Vs]
     ===================================================================

      300.000      8.7213       0.999994E+18       0.273395E+04  x-axis
                                                   0.277858E+04  y-axis
                                                   0.282577E+04  z-axis
                                                   0.277943E+04     avg

     ===================================================================
     Temp [K]  Fermi [eV]  Elec density [cm^-3]  Elec mobility [cm^2/Vs]
     ===================================================================

      300.000      9.6430       0.100001E+19       0.349880E+04  x-axis
                                                   0.357911E+04  y-axis
                                                   0.368627E+04  z-axis
                                                   0.358806E+04     avg

     Note: Mobility are sorted by ascending values and might not correspond
                                              to the expected (x,y,z) axis.

     Total time so far
     SCAT         :    432.49s CPU    433.95s WALL (    3006 calls)
     MOB          :    431.94s CPU    433.21s WALL (       6 calls)

     Progression iq (fine) =     105000/    291222
     Creation of a restart point

     ===================================================================
     Temp [K]  Fermi [eV]  Hole density [cm^-3]  Hole mobility [cm^2/Vs]
     ===================================================================

      300.000      8.7213       0.999994E+18       0.273395E+04  x-axis
                                                   0.277858E+04  y-axis
                                                   0.282577E+04  z-axis
                                                   0.277943E+04     avg

     ===================================================================
     Temp [K]  Fermi [eV]  Elec density [cm^-3]  Elec mobility [cm^2/Vs]
     ===================================================================

      300.000      9.6430       0.100001E+19       0.349880E+04  x-axis
                                                   0.357911E+04  y-axis
                                                   0.368627E+04  z-axis
                                                   0.358806E+04     avg

     Note: Mobility are sorted by ascending values and might not correspond
                                              to the expected (x,y,z) axis.

     Total time so far
     SCAT         :    504.68s CPU    506.34s WALL (    3507 calls)
     MOB          :    503.89s CPU    505.37s WALL (       7 calls)

     Progression iq (fine) =     105500/    291222
     Creation of a restart point

     ===================================================================
     Temp [K]  Fermi [eV]  Hole density [cm^-3]  Hole mobility [cm^2/Vs]
     ===================================================================

      300.000      8.7213       0.999994E+18       0.273395E+04  x-axis
                                                   0.277858E+04  y-axis
                                                   0.282577E+04  z-axis
                                                   0.277943E+04     avg

     ===================================================================
     Temp [K]  Fermi [eV]  Elec density [cm^-3]  Elec mobility [cm^2/Vs]
     ===================================================================

      300.000      9.6430       0.100001E+19       0.345874E+04  x-axis
                                                   0.353825E+04  y-axis
                                                   0.364425E+04  z-axis
                                                   0.354708E+04     avg

     Note: Mobility are sorted by ascending values and might not correspond
                                              to the expected (x,y,z) axis.

     Total time so far
     SCAT         :    576.62s CPU    578.43s WALL (    4008 calls)
     MOB          :    575.77s CPU    577.38s WALL (       8 calls)

     Progression iq (fine) =     106000/    291222
     Creation of a restart point

     ===================================================================
     Temp [K]  Fermi [eV]  Hole density [cm^-3]  Hole mobility [cm^2/Vs]
     ===================================================================

      300.000      8.7213       0.999994E+18       0.273395E+04  x-axis
                                                   0.277858E+04  y-axis
                                                   0.282577E+04  z-axis
                                                   0.277943E+04     avg

     ===================================================================
     Temp [K]  Fermi [eV]  Elec density [cm^-3]  Elec mobility [cm^2/Vs]
     ===================================================================

      300.000      9.6430       0.100001E+19       0.345765E+04  x-axis
                                                   0.353717E+04  y-axis
                                                   0.364315E+04  z-axis
                                                   0.354599E+04     avg

     Note: Mobility are sorted by ascending values and might not correspond
                                              to the expected (x,y,z) axis.

     Total time so far
     SCAT         :    648.62s CPU    650.69s WALL (    4509 calls)
     MOB          :    647.70s CPU    649.57s WALL (       9 calls)

     Progression iq (fine) =     106500/    291222
     Creation of a restart point

     ===================================================================
     Temp [K]  Fermi [eV]  Hole density [cm^-3]  Hole mobility [cm^2/Vs]
     ===================================================================

      300.000      8.7213       0.999994E+18       0.273395E+04  x-axis
                                                   0.277858E+04  y-axis
                                                   0.282577E+04  z-axis
                                                   0.277943E+04     avg

     ===================================================================
     Temp [K]  Fermi [eV]  Elec density [cm^-3]  Elec mobility [cm^2/Vs]
     ===================================================================

      300.000      9.6430       0.100001E+19       0.343911E+04  x-axis
                                                   0.351768E+04  y-axis
                                                   0.362335E+04  z-axis
                                                   0.352672E+04     avg

     Note: Mobility are sorted by ascending values and might not correspond
                                              to the expected (x,y,z) axis.

     Total time so far
     SCAT         :    720.67s CPU    722.87s WALL (    5010 calls)
     MOB          :    719.62s CPU    721.61s WALL (      10 calls)

     Progression iq (fine) =     107000/    291222
     Creation of a restart point

     ===================================================================
     Temp [K]  Fermi [eV]  Hole density [cm^-3]  Hole mobility [cm^2/Vs]
     ===================================================================

      300.000      8.7213       0.999994E+18       0.273395E+04  x-axis
                                                   0.277858E+04  y-axis
                                                   0.282577E+04  z-axis
                                                   0.277943E+04     avg

     ===================================================================
     Temp [K]  Fermi [eV]  Elec density [cm^-3]  Elec mobility [cm^2/Vs]
     ===================================================================

      300.000      9.6430       0.100001E+19       0.336640E+04  x-axis
                                                   0.344426E+04  y-axis
                                                   0.354816E+04  z-axis
                                                   0.345294E+04     avg

     Note: Mobility are sorted by ascending values and might not correspond
                                              to the expected (x,y,z) axis.

     Total time so far
     SCAT         :    792.81s CPU    795.35s WALL (    5511 calls)
     MOB          :    791.59s CPU    793.91s WALL (      11 calls)

     Progression iq (fine) =     107500/    291222
     Creation of a restart point

     ===================================================================
     Temp [K]  Fermi [eV]  Hole density [cm^-3]  Hole mobility [cm^2/Vs]
     ===================================================================

      300.000      8.7213       0.999994E+18       0.273395E+04  x-axis
                                                   0.277858E+04  y-axis
                                                   0.282577E+04  z-axis
                                                   0.277943E+04     avg

     ===================================================================
     Temp [K]  Fermi [eV]  Elec density [cm^-3]  Elec mobility [cm^2/Vs]
     ===================================================================

      300.000      9.6430       0.100001E+19       0.336123E+04  x-axis
                                                   0.343921E+04  y-axis
                                                   0.354295E+04  z-axis
                                                   0.344780E+04     avg

     Note: Mobility are sorted by ascending values and might not correspond
                                              to the expected (x,y,z) axis.

     Total time so far
     SCAT         :    864.85s CPU    868.18s WALL (    6012 calls)
     MOB          :    863.57s CPU    866.01s WALL (      12 calls)

     Progression iq (fine) =     108000/    291222
     Creation of a restart point

     ===================================================================
     Temp [K]  Fermi [eV]  Hole density [cm^-3]  Hole mobility [cm^2/Vs]
     ===================================================================

      300.000      8.7213       0.999994E+18       0.273395E+04  x-axis
                                                   0.277858E+04  y-axis
                                                   0.282577E+04  z-axis
                                                   0.277943E+04     avg

     ===================================================================
     Temp [K]  Fermi [eV]  Elec density [cm^-3]  Elec mobility [cm^2/Vs]
     ===================================================================

      300.000      9.6430       0.100001E+19       0.336123E+04  x-axis
                                                   0.343921E+04  y-axis
                                                   0.354295E+04  z-axis
                                                   0.344780E+04     avg

     Note: Mobility are sorted by ascending values and might not correspond
                                              to the expected (x,y,z) axis.

     Total time so far
     SCAT         :    936.97s CPU    940.52s WALL (    6513 calls)
     MOB          :    935.54s CPU    938.19s WALL (      13 calls)

     Progression iq (fine) =     108500/    291222
     Creation of a restart point

     ===================================================================
     Temp [K]  Fermi [eV]  Hole density [cm^-3]  Hole mobility [cm^2/Vs]
     ===================================================================

      300.000      8.7213       0.999994E+18       0.273395E+04  x-axis
                                                   0.277858E+04  y-axis
                                                   0.282577E+04  z-axis
                                                   0.277943E+04     avg

     ===================================================================
     Temp [K]  Fermi [eV]  Elec density [cm^-3]  Elec mobility [cm^2/Vs]
     ===================================================================

      300.000      9.6430       0.100001E+19       0.336088E+04  x-axis
                                                   0.343883E+04  y-axis
                                                   0.354257E+04  z-axis
                                                   0.344743E+04     avg

     Note: Mobility are sorted by ascending values and might not correspond
                                              to the expected (x,y,z) axis.

     Total time so far
     SCAT         :   1008.99s CPU   1012.77s WALL (    7014 calls)
     MOB          :   1007.40s CPU   1010.27s WALL (      14 calls)

     Progression iq (fine) =     109000/    291222
     Creation of a restart point

     ===================================================================
     Temp [K]  Fermi [eV]  Hole density [cm^-3]  Hole mobility [cm^2/Vs]
     ===================================================================

      300.000      8.7213       0.999994E+18       0.273395E+04  x-axis
                                                   0.277858E+04  y-axis
                                                   0.282577E+04  z-axis
                                                   0.277943E+04     avg

     ===================================================================
     Temp [K]  Fermi [eV]  Elec density [cm^-3]  Elec mobility [cm^2/Vs]
     ===================================================================

      300.000      9.6430       0.100001E+19       0.332433E+04  x-axis
                                                   0.340154E+04  y-axis
                                                   0.350417E+04  z-axis
                                                   0.341001E+04     avg

     Note: Mobility are sorted by ascending values and might not correspond
                                              to the expected (x,y,z) axis.

     Total time so far
     SCAT         :   1080.96s CPU   1084.94s WALL (    7515 calls)
     MOB          :   1079.30s CPU   1082.36s WALL (      15 calls)

     Progression iq (fine) =     109500/    291222
     Creation of a restart point

     ===================================================================
     Temp [K]  Fermi [eV]  Hole density [cm^-3]  Hole mobility [cm^2/Vs]
     ===================================================================

      300.000      8.7213       0.999994E+18       0.273395E+04  x-axis
                                                   0.277858E+04  y-axis
                                                   0.282577E+04  z-axis
                                                   0.277943E+04     avg

     ===================================================================
     Temp [K]  Fermi [eV]  Elec density [cm^-3]  Elec mobility [cm^2/Vs]
     ===================================================================

      300.000      9.6430       0.100001E+19       0.332422E+04  x-axis
                                                   0.340142E+04  y-axis
                                                   0.350406E+04  z-axis
                                                   0.340990E+04     avg

     Note: Mobility are sorted by ascending values and might not correspond
                                              to the expected (x,y,z) axis.

     Total time so far
     SCAT         :   1152.92s CPU   1157.09s WALL (    8016 calls)
     MOB          :   1151.19s CPU   1154.43s WALL (      16 calls)

     Progression iq (fine) =     110000/    291222
     Creation of a restart point

     ===================================================================
     Temp [K]  Fermi [eV]  Hole density [cm^-3]  Hole mobility [cm^2/Vs]
     ===================================================================

      300.000      8.7213       0.999994E+18       0.273395E+04  x-axis
                                                   0.277858E+04  y-axis
                                                   0.282577E+04  z-axis
                                                   0.277943E+04     avg

     ===================================================================
     Temp [K]  Fermi [eV]  Elec density [cm^-3]  Elec mobility [cm^2/Vs]
     ===================================================================

      300.000      9.6430       0.100001E+19       0.329158E+04  x-axis
                                                   0.336751E+04  y-axis
                                                   0.346948E+04  z-axis
                                                   0.337619E+04     avg

     Note: Mobility are sorted by ascending values and might not correspond
                                              to the expected (x,y,z) axis.

     Total time so far
     SCAT         :   1225.12s CPU   1229.42s WALL (    8517 calls)
     MOB          :   1223.26s CPU   1226.60s WALL (      17 calls)

     Progression iq (fine) =     110500/    291222
     Creation of a restart point

     ===================================================================
     Temp [K]  Fermi [eV]  Hole density [cm^-3]  Hole mobility [cm^2/Vs]
     ===================================================================

      300.000      8.7213       0.999994E+18       0.273395E+04  x-axis
                                                   0.277858E+04  y-axis
                                                   0.282577E+04  z-axis
                                                   0.277943E+04     avg

     ===================================================================
     Temp [K]  Fermi [eV]  Elec density [cm^-3]  Elec mobility [cm^2/Vs]
     ===================================================================

      300.000      9.6430       0.100001E+19       0.324336E+04  x-axis
                                                   0.331905E+04  y-axis
                                                   0.341969E+04  z-axis
                                                   0.332737E+04     avg

     Note: Mobility are sorted by ascending values and might not correspond
                                              to the expected (x,y,z) axis.

     Total time so far
     SCAT         :   1297.20s CPU   1301.70s WALL (    9018 calls)
     MOB          :   1295.20s CPU   1298.73s WALL (      18 calls)

     Progression iq (fine) =     111000/    291222
     Creation of a restart point

     ===================================================================
     Temp [K]  Fermi [eV]  Hole density [cm^-3]  Hole mobility [cm^2/Vs]
     ===================================================================

      300.000      8.7213       0.999994E+18       0.273395E+04  x-axis
                                                   0.277858E+04  y-axis
                                                   0.282577E+04  z-axis
                                                   0.277943E+04     avg

     ===================================================================
     Temp [K]  Fermi [eV]  Elec density [cm^-3]  Elec mobility [cm^2/Vs]
     ===================================================================

      300.000      9.6430       0.100001E+19       0.324321E+04  x-axis
                                                   0.331890E+04  y-axis
                                                   0.341953E+04  z-axis
                                                   0.332721E+04     avg

     Note: Mobility are sorted by ascending values and might not correspond
                                              to the expected (x,y,z) axis.

     Total time so far
     SCAT         :   1369.17s CPU   1373.86s WALL (    9519 calls)
     MOB          :   1367.11s CPU   1370.82s WALL (      19 calls)

     Progression iq (fine) =     111500/    291222
     Creation of a restart point

     ===================================================================
     Temp [K]  Fermi [eV]  Hole density [cm^-3]  Hole mobility [cm^2/Vs]
     ===================================================================

      300.000      8.7213       0.999994E+18       0.273395E+04  x-axis
                                                   0.277858E+04  y-axis
                                                   0.282577E+04  z-axis
                                                   0.277943E+04     avg

     ===================================================================
     Temp [K]  Fermi [eV]  Elec density [cm^-3]  Elec mobility [cm^2/Vs]
     ===================================================================

      300.000      9.6430       0.100001E+19       0.324321E+04  x-axis
                                                   0.331890E+04  y-axis
                                                   0.341953E+04  z-axis
                                                   0.332721E+04     avg

     Note: Mobility are sorted by ascending values and might not correspond
                                              to the expected (x,y,z) axis.

     Total time so far
     SCAT         :   1441.37s CPU   1446.27s WALL (   10020 calls)
     MOB          :   1439.11s CPU   1443.01s WALL (      20 calls)

     Progression iq (fine) =     112000/    291222
     Creation of a restart point

     ===================================================================
     Temp [K]  Fermi [eV]  Hole density [cm^-3]  Hole mobility [cm^2/Vs]
     ===================================================================

      300.000      8.7213       0.999994E+18       0.273395E+04  x-axis
                                                   0.277858E+04  y-axis
                                                   0.282577E+04  z-axis
                                                   0.277943E+04     avg

     ===================================================================
     Temp [K]  Fermi [eV]  Elec density [cm^-3]  Elec mobility [cm^2/Vs]
     ===================================================================

      300.000      9.6430       0.100001E+19       0.323193E+04  x-axis
                                                   0.330711E+04  y-axis
                                                   0.340748E+04  z-axis
                                                   0.331551E+04     avg

     Note: Mobility are sorted by ascending values and might not correspond
                                              to the expected (x,y,z) axis.

     Total time so far
     SCAT         :   1513.41s CPU   1518.49s WALL (   10521 calls)
     MOB          :   1511.01s CPU   1515.09s WALL (      21 calls)

     Progression iq (fine) =     112500/    291222
     Creation of a restart point

     ===================================================================
     Temp [K]  Fermi [eV]  Hole density [cm^-3]  Hole mobility [cm^2/Vs]
     ===================================================================

      300.000      8.7213       0.999994E+18       0.273395E+04  x-axis
                                                   0.277858E+04  y-axis
                                                   0.282577E+04  z-axis
                                                   0.277943E+04     avg

     ===================================================================
     Temp [K]  Fermi [eV]  Elec density [cm^-3]  Elec mobility [cm^2/Vs]
     ===================================================================

      300.000      9.6430       0.100001E+19       0.321124E+04  x-axis
                                                   0.328625E+04  y-axis
                                                   0.338592E+04  z-axis
                                                   0.329447E+04     avg

     Note: Mobility are sorted by ascending values and might not correspond
                                              to the expected (x,y,z) axis.

     Total time so far
     SCAT         :   1585.49s CPU   1590.79s WALL (   11022 calls)
     MOB          :   1583.03s CPU   1587.31s WALL (      22 calls)

     Progression iq (fine) =     113000/    291222
     Creation of a restart point

     ===================================================================
     Temp [K]  Fermi [eV]  Hole density [cm^-3]  Hole mobility [cm^2/Vs]
     ===================================================================

      300.000      8.7213       0.999994E+18       0.273395E+04  x-axis
                                                   0.277858E+04  y-axis
                                                   0.282577E+04  z-axis
                                                   0.277943E+04     avg

     ===================================================================
     Temp [K]  Fermi [eV]  Elec density [cm^-3]  Elec mobility [cm^2/Vs]
     ===================================================================

      300.000      9.6430       0.100001E+19       0.321009E+04  x-axis
                                                   0.328501E+04  y-axis
                                                   0.338467E+04  z-axis
                                                   0.329326E+04     avg

     Note: Mobility are sorted by ascending values and might not correspond
                                              to the expected (x,y,z) axis.

     Total time so far
     SCAT         :   1657.49s CPU   1663.57s WALL (   11523 calls)
     MOB          :   1654.96s CPU   1660.01s WALL (      23 calls)

     Progression iq (fine) =     113500/    291222
     Creation of a restart point

     ===================================================================
     Temp [K]  Fermi [eV]  Hole density [cm^-3]  Hole mobility [cm^2/Vs]
     ===================================================================

      300.000      8.7213       0.999994E+18       0.273395E+04  x-axis
                                                   0.277858E+04  y-axis
                                                   0.282577E+04  z-axis
                                                   0.277943E+04     avg

     ===================================================================
     Temp [K]  Fermi [eV]  Elec density [cm^-3]  Elec mobility [cm^2/Vs]
     ===================================================================

      300.000      9.6430       0.100001E+19       0.316590E+04  x-axis
                                                   0.323948E+04  y-axis
                                                   0.333800E+04  z-axis
                                                   0.324779E+04     avg

     Note: Mobility are sorted by ascending values and might not correspond
                                              to the expected (x,y,z) axis.

     Total time so far
     SCAT         :   1729.56s CPU   1735.86s WALL (   12024 calls)
     MOB          :   1726.86s CPU   1732.09s WALL (      24 calls)

     Progression iq (fine) =     114000/    291222
     Creation of a restart point

     ===================================================================
     Temp [K]  Fermi [eV]  Hole density [cm^-3]  Hole mobility [cm^2/Vs]
     ===================================================================

      300.000      8.7213       0.999994E+18       0.273395E+04  x-axis
                                                   0.277858E+04  y-axis
                                                   0.282577E+04  z-axis
                                                   0.277943E+04     avg

     ===================================================================
     Temp [K]  Fermi [eV]  Elec density [cm^-3]  Elec mobility [cm^2/Vs]
     ===================================================================

      300.000      9.6430       0.100001E+19       0.314782E+04  x-axis
                                                   0.322149E+04  y-axis
                                                   0.331943E+04  z-axis
                                                   0.322958E+04     avg

     Note: Mobility are sorted by ascending values and might not correspond
                                              to the expected (x,y,z) axis.

     Total time so far
     SCAT         :   1801.35s CPU   1807.85s WALL (   12525 calls)
     MOB          :   1798.59s CPU   1804.00s WALL (      25 calls)

     Progression iq (fine) =     114500/    291222
     Creation of a restart point

     ===================================================================
     Temp [K]  Fermi [eV]  Hole density [cm^-3]  Hole mobility [cm^2/Vs]
     ===================================================================

      300.000      8.7213       0.999994E+18       0.273395E+04  x-axis
                                                   0.277858E+04  y-axis
                                                   0.282577E+04  z-axis
                                                   0.277943E+04     avg

     ===================================================================
     Temp [K]  Fermi [eV]  Elec density [cm^-3]  Elec mobility [cm^2/Vs]
     ===================================================================

      300.000      9.6430       0.100001E+19       0.314782E+04  x-axis
                                                   0.322149E+04  y-axis
                                                   0.331943E+04  z-axis
                                                   0.322958E+04     avg

     Note: Mobility are sorted by ascending values and might not correspond
                                              to the expected (x,y,z) axis.

     Total time so far
     SCAT         :   1873.44s CPU   1880.17s WALL (   13026 calls)
     MOB          :   1870.58s CPU   1876.20s WALL (      26 calls)

     Progression iq (fine) =     115000/    291222
     Creation of a restart point

     ===================================================================
     Temp [K]  Fermi [eV]  Hole density [cm^-3]  Hole mobility [cm^2/Vs]
     ===================================================================

      300.000      8.7213       0.999994E+18       0.273395E+04  x-axis
                                                   0.277858E+04  y-axis
                                                   0.282577E+04  z-axis
                                                   0.277943E+04     avg

     ===================================================================
     Temp [K]  Fermi [eV]  Elec density [cm^-3]  Elec mobility [cm^2/Vs]
     ===================================================================

      300.000      9.6430       0.100001E+19       0.314782E+04  x-axis
                                                   0.322149E+04  y-axis
                                                   0.331943E+04  z-axis
                                                   0.322958E+04     avg

     Note: Mobility are sorted by ascending values and might not correspond
                                              to the expected (x,y,z) axis.

     Total time so far
     SCAT         :   1945.63s CPU   1952.47s WALL (   13527 calls)
     MOB          :   1942.53s CPU   1948.27s WALL (      27 calls)

     Progression iq (fine) =     115500/    291222
     Creation of a restart point

     ===================================================================
     Temp [K]  Fermi [eV]  Hole density [cm^-3]  Hole mobility [cm^2/Vs]
     ===================================================================

      300.000      8.7213       0.999994E+18       0.273395E+04  x-axis
                                                   0.277858E+04  y-axis
                                                   0.282577E+04  z-axis
                                                   0.277943E+04     avg

     ===================================================================
     Temp [K]  Fermi [eV]  Elec density [cm^-3]  Elec mobility [cm^2/Vs]
     ===================================================================

      300.000      9.6430       0.100001E+19       0.312205E+04  x-axis
                                                   0.319515E+04  y-axis
                                                   0.329232E+04  z-axis
                                                   0.320317E+04     avg

     Note: Mobility are sorted by ascending values and might not correspond
                                              to the expected (x,y,z) axis.

     Total time so far
     SCAT         :   2017.70s CPU   2024.67s WALL (   14028 calls)
     MOB          :   2014.53s CPU   2020.41s WALL (      28 calls)

     Progression iq (fine) =     116000/    291222
     Creation of a restart point

     ===================================================================
     Temp [K]  Fermi [eV]  Hole density [cm^-3]  Hole mobility [cm^2/Vs]
     ===================================================================

      300.000      8.7213       0.999994E+18       0.273395E+04  x-axis
                                                   0.277858E+04  y-axis
                                                   0.282577E+04  z-axis
                                                   0.277943E+04     avg

     ===================================================================
     Temp [K]  Fermi [eV]  Elec density [cm^-3]  Elec mobility [cm^2/Vs]
     ===================================================================

      300.000      9.6430       0.100001E+19       0.312119E+04  x-axis
                                                   0.319430E+04  y-axis
                                                   0.329145E+04  z-axis
                                                   0.320231E+04     avg

     Note: Mobility are sorted by ascending values and might not correspond
                                              to the expected (x,y,z) axis.

     Total time so far
     SCAT         :   2089.69s CPU   2096.88s WALL (   14529 calls)
     MOB          :   2086.47s CPU   2092.55s WALL (      29 calls)

     Progression iq (fine) =     116500/    291222
     Creation of a restart point

     ===================================================================
     Temp [K]  Fermi [eV]  Hole density [cm^-3]  Hole mobility [cm^2/Vs]
     ===================================================================

      300.000      8.7213       0.999994E+18       0.273395E+04  x-axis
                                                   0.277858E+04  y-axis
                                                   0.282577E+04  z-axis
                                                   0.277943E+04     avg

     ===================================================================
     Temp [K]  Fermi [eV]  Elec density [cm^-3]  Elec mobility [cm^2/Vs]
     ===================================================================

      300.000      9.6430       0.100001E+19       0.311141E+04  x-axis
                                                   0.318396E+04  y-axis
                                                   0.328093E+04  z-axis
                                                   0.319210E+04     avg

     Note: Mobility are sorted by ascending values and might not correspond
                                              to the expected (x,y,z) axis.

     Total time so far
     SCAT         :   2161.78s CPU   2169.16s WALL (   15030 calls)
     MOB          :   2158.43s CPU   2164.68s WALL (      30 calls)

     Progression iq (fine) =     117000/    291222
     Creation of a restart point

     ===================================================================
     Temp [K]  Fermi [eV]  Hole density [cm^-3]  Hole mobility [cm^2/Vs]
     ===================================================================

      300.000      8.7213       0.999994E+18       0.273395E+04  x-axis
                                                   0.277858E+04  y-axis
                                                   0.282577E+04  z-axis
                                                   0.277943E+04     avg

     ===================================================================
     Temp [K]  Fermi [eV]  Elec density [cm^-3]  Elec mobility [cm^2/Vs]
     ===================================================================

      300.000      9.6430       0.100001E+19       0.307589E+04  x-axis
                                                   0.314780E+04  y-axis
                                                   0.324355E+04  z-axis
                                                   0.315575E+04     avg

     Note: Mobility are sorted by ascending values and might not correspond
                                              to the expected (x,y,z) axis.

     Total time so far
     SCAT         :   2233.89s CPU   2241.59s WALL (   15531 calls)
     MOB          :   2230.36s CPU   2236.94s WALL (      31 calls)

     Progression iq (fine) =     117500/    291222
     Creation of a restart point

     ===================================================================
     Temp [K]  Fermi [eV]  Hole density [cm^-3]  Hole mobility [cm^2/Vs]
     ===================================================================

      300.000      8.7213       0.999994E+18       0.273395E+04  x-axis
                                                   0.277858E+04  y-axis
                                                   0.282577E+04  z-axis
                                                   0.277943E+04     avg

     ===================================================================
     Temp [K]  Fermi [eV]  Elec density [cm^-3]  Elec mobility [cm^2/Vs]
     ===================================================================

      300.000      9.6430       0.100001E+19       0.307312E+04  x-axis
                                                   0.314506E+04  y-axis
                                                   0.324073E+04  z-axis
                                                   0.315297E+04     avg

     Note: Mobility are sorted by ascending values and might not correspond
                                              to the expected (x,y,z) axis.

     Total time so far
     SCAT         :   2306.04s CPU   2313.85s WALL (   16032 calls)
     MOB          :   2302.43s CPU   2309.13s WALL (      32 calls)

     Progression iq (fine) =     118000/    291222
     Creation of a restart point

     ===================================================================
     Temp [K]  Fermi [eV]  Hole density [cm^-3]  Hole mobility [cm^2/Vs]
     ===================================================================

      300.000      8.7213       0.999994E+18       0.273395E+04  x-axis
                                                   0.277858E+04  y-axis
                                                   0.282577E+04  z-axis
                                                   0.277943E+04     avg

     ===================================================================
     Temp [K]  Fermi [eV]  Elec density [cm^-3]  Elec mobility [cm^2/Vs]
     ===================================================================

      300.000      9.6430       0.100001E+19       0.307312E+04  x-axis
                                                   0.314506E+04  y-axis
                                                   0.324073E+04  z-axis
                                                   0.315297E+04     avg

     Note: Mobility are sorted by ascending values and might not correspond
                                              to the expected (x,y,z) axis.

     Total time so far
     SCAT         :   2378.16s CPU   2386.17s WALL (   16533 calls)
     MOB          :   2374.38s CPU   2381.24s WALL (      33 calls)

[...]
     Temp [K]  Fermi [eV]  Hole density [cm^-3]  Hole mobility [cm^2/Vs]
     ===================================================================

      300.000      8.7213       0.999994E+18       0.160885E+04  x-axis
                                                   0.163787E+04  y-axis
                                                   0.166308E+04  z-axis
                                                   0.163660E+04     avg

     ===================================================================
     Temp [K]  Fermi [eV]  Elec density [cm^-3]  Elec mobility [cm^2/Vs]
     ===================================================================

      300.000      9.6430       0.100001E+19       0.164465E+04  x-axis
                                                   0.169364E+04  y-axis
                                                   0.175172E+04  z-axis
                                                   0.169667E+04     avg

     Note: Mobility are sorted by ascending values and might not correspond
                                              to the expected (x,y,z) axis.

     Total time so far
     SCAT         :  26485.50s CPU  27626.53s WALL (  184368 calls)
     MOB          :  26444.62s CPU  27135.49s WALL (     368 calls)

     Progression iq (fine) =     286000/    291222
     Creation of a restart point

     ===================================================================
     Temp [K]  Fermi [eV]  Hole density [cm^-3]  Hole mobility [cm^2/Vs]
     ===================================================================

      300.000      8.7213       0.999994E+18       0.146948E+04  x-axis
                                                   0.149608E+04  y-axis
                                                   0.151780E+04  z-axis
                                                   0.149445E+04     avg

     ===================================================================
     Temp [K]  Fermi [eV]  Elec density [cm^-3]  Elec mobility [cm^2/Vs]
     ===================================================================

      300.000      9.6430       0.100001E+19       0.148596E+04  x-axis
                                                   0.152951E+04  y-axis
                                                   0.158242E+04  z-axis
                                                   0.153263E+04     avg

     Note: Mobility are sorted by ascending values and might not correspond
                                              to the expected (x,y,z) axis.

     Total time so far
     SCAT         :  26557.33s CPU  27699.39s WALL (  184869 calls)
     MOB          :  26516.14s CPU  27208.03s WALL (     369 calls)

     Progression iq (fine) =     286500/    291222
     Creation of a restart point

     ===================================================================
     Temp [K]  Fermi [eV]  Hole density [cm^-3]  Hole mobility [cm^2/Vs]
     ===================================================================

      300.000      8.7213       0.999994E+18       0.144535E+04  x-axis
                                                   0.147128E+04  y-axis
                                                   0.149252E+04  z-axis
                                                   0.146972E+04     avg

     ===================================================================
     Temp [K]  Fermi [eV]  Elec density [cm^-3]  Elec mobility [cm^2/Vs]
     ===================================================================

      300.000      9.6430       0.100001E+19       0.141360E+04  x-axis
                                                   0.145620E+04  y-axis
                                                   0.150605E+04  z-axis
                                                   0.145861E+04     avg

     Note: Mobility are sorted by ascending values and might not correspond
                                              to the expected (x,y,z) axis.

     Total time so far
     SCAT         :  26629.21s CPU  27775.45s WALL (  185370 calls)
     MOB          :  26587.73s CPU  27279.81s WALL (     370 calls)

     Progression iq (fine) =     287000/    291222
     Creation of a restart point

     ===================================================================
     Temp [K]  Fermi [eV]  Hole density [cm^-3]  Hole mobility [cm^2/Vs]
     ===================================================================

      300.000      8.7213       0.999994E+18       0.144535E+04  x-axis
                                                   0.147128E+04  y-axis
                                                   0.149252E+04  z-axis
                                                   0.146972E+04     avg

     ===================================================================
     Temp [K]  Fermi [eV]  Elec density [cm^-3]  Elec mobility [cm^2/Vs]
     ===================================================================

      300.000      9.6430       0.100001E+19       0.140591E+04  x-axis
                                                   0.144828E+04  y-axis
                                                   0.149790E+04  z-axis
                                                   0.145070E+04     avg

     Note: Mobility are sorted by ascending values and might not correspond
                                              to the expected (x,y,z) axis.

     Total time so far
     SCAT         :  26700.95s CPU  27847.72s WALL (  185871 calls)
     MOB          :  26659.39s CPU  27351.91s WALL (     371 calls)

     Progression iq (fine) =     287500/    291222
     Creation of a restart point

     ===================================================================
     Temp [K]  Fermi [eV]  Hole density [cm^-3]  Hole mobility [cm^2/Vs]
     ===================================================================

      300.000      8.7213       0.999994E+18       0.144535E+04  x-axis
                                                   0.147128E+04  y-axis
                                                   0.149252E+04  z-axis
                                                   0.146972E+04     avg

     ===================================================================
     Temp [K]  Fermi [eV]  Elec density [cm^-3]  Elec mobility [cm^2/Vs]
     ===================================================================

      300.000      9.6430       0.100001E+19       0.140474E+04  x-axis
                                                   0.144709E+04  y-axis
                                                   0.149667E+04  z-axis
                                                   0.144950E+04     avg

     Note: Mobility are sorted by ascending values and might not correspond
                                              to the expected (x,y,z) axis.

     Total time so far
     SCAT         :  26772.66s CPU  27922.91s WALL (  186372 calls)
     MOB          :  26731.04s CPU  27426.97s WALL (     372 calls)

     Progression iq (fine) =     288000/    291222
     Creation of a restart point

     ===================================================================
     Temp [K]  Fermi [eV]  Hole density [cm^-3]  Hole mobility [cm^2/Vs]
     ===================================================================

      300.000      8.7213       0.999994E+18       0.144535E+04  x-axis
                                                   0.147128E+04  y-axis
                                                   0.149252E+04  z-axis
                                                   0.146972E+04     avg

     ===================================================================
     Temp [K]  Fermi [eV]  Elec density [cm^-3]  Elec mobility [cm^2/Vs]
     ===================================================================

      300.000      9.6430       0.100001E+19       0.140474E+04  x-axis
                                                   0.144709E+04  y-axis
                                                   0.149667E+04  z-axis
                                                   0.144950E+04     avg

     Note: Mobility are sorted by ascending values and might not correspond
                                              to the expected (x,y,z) axis.

     Total time so far
     SCAT         :  26844.49s CPU  27997.41s WALL (  186873 calls)
     MOB          :  26802.66s CPU  27499.43s WALL (     373 calls)

     Progression iq (fine) =     288500/    291222
     Creation of a restart point

     ===================================================================
     Temp [K]  Fermi [eV]  Hole density [cm^-3]  Hole mobility [cm^2/Vs]
     ===================================================================

      300.000      8.7213       0.999994E+18       0.144535E+04  x-axis
                                                   0.147128E+04  y-axis
                                                   0.149252E+04  z-axis
                                                   0.146972E+04     avg

     ===================================================================
     Temp [K]  Fermi [eV]  Elec density [cm^-3]  Elec mobility [cm^2/Vs]
     ===================================================================

      300.000      9.6430       0.100001E+19       0.140474E+04  x-axis
                                                   0.144709E+04  y-axis
                                                   0.149667E+04  z-axis
                                                   0.144950E+04     avg

     Note: Mobility are sorted by ascending values and might not correspond
                                              to the expected (x,y,z) axis.

     Total time so far
     SCAT         :  26916.24s CPU  28069.69s WALL (  187374 calls)
     MOB          :  26874.26s CPU  27571.42s WALL (     374 calls)

     Progression iq (fine) =     289000/    291222
     Creation of a restart point

     ===================================================================
     Temp [K]  Fermi [eV]  Hole density [cm^-3]  Hole mobility [cm^2/Vs]
     ===================================================================

      300.000      8.7213       0.999994E+18       0.144535E+04  x-axis
                                                   0.147128E+04  y-axis
                                                   0.149252E+04  z-axis
                                                   0.146972E+04     avg

     ===================================================================
     Temp [K]  Fermi [eV]  Elec density [cm^-3]  Elec mobility [cm^2/Vs]
     ===================================================================

      300.000      9.6430       0.100001E+19       0.140474E+04  x-axis
                                                   0.144709E+04  y-axis
                                                   0.149667E+04  z-axis
                                                   0.144950E+04     avg

     Note: Mobility are sorted by ascending values and might not correspond
                                              to the expected (x,y,z) axis.

     Total time so far
     SCAT         :  26988.10s CPU  28142.15s WALL (  187875 calls)
     MOB          :  26945.92s CPU  27643.63s WALL (     375 calls)

     Progression iq (fine) =     289500/    291222
     Creation of a restart point

     ===================================================================
     Temp [K]  Fermi [eV]  Hole density [cm^-3]  Hole mobility [cm^2/Vs]
     ===================================================================

      300.000      8.7213       0.999994E+18       0.144535E+04  x-axis
                                                   0.147128E+04  y-axis
                                                   0.149252E+04  z-axis
                                                   0.146972E+04     avg

     ===================================================================
     Temp [K]  Fermi [eV]  Elec density [cm^-3]  Elec mobility [cm^2/Vs]
     ===================================================================

      300.000      9.6430       0.100001E+19       0.140474E+04  x-axis
                                                   0.144709E+04  y-axis
                                                   0.149667E+04  z-axis
                                                   0.144950E+04     avg

     Note: Mobility are sorted by ascending values and might not correspond
                                              to the expected (x,y,z) axis.

     Total time so far
     SCAT         :  27059.95s CPU  28221.34s WALL (  188376 calls)
     MOB          :  27017.58s CPU  27722.32s WALL (     376 calls)

     Progression iq (fine) =     290000/    291222
     Creation of a restart point

     ===================================================================
     Temp [K]  Fermi [eV]  Hole density [cm^-3]  Hole mobility [cm^2/Vs]
     ===================================================================

      300.000      8.7213       0.999994E+18       0.144535E+04  x-axis
                                                   0.147128E+04  y-axis
                                                   0.149252E+04  z-axis
                                                   0.146972E+04     avg

     ===================================================================
     Temp [K]  Fermi [eV]  Elec density [cm^-3]  Elec mobility [cm^2/Vs]
     ===================================================================

      300.000      9.6430       0.100001E+19       0.140474E+04  x-axis
                                                   0.144709E+04  y-axis
                                                   0.149667E+04  z-axis
                                                   0.144950E+04     avg

     Note: Mobility are sorted by ascending values and might not correspond
                                              to the expected (x,y,z) axis.

     Total time so far
     SCAT         :  27131.65s CPU  28295.32s WALL (  188877 calls)
     MOB          :  27089.20s CPU  27794.83s WALL (     377 calls)

     Progression iq (fine) =     290500/    291222
     Creation of a restart point

     ===================================================================
     Temp [K]  Fermi [eV]  Hole density [cm^-3]  Hole mobility [cm^2/Vs]
     ===================================================================

      300.000      8.7213       0.999994E+18       0.144523E+04  x-axis
                                                   0.147117E+04  y-axis
                                                   0.149240E+04  z-axis
                                                   0.146960E+04     avg

     ===================================================================
     Temp [K]  Fermi [eV]  Elec density [cm^-3]  Elec mobility [cm^2/Vs]
     ===================================================================

      300.000      9.6430       0.100001E+19       0.140473E+04  x-axis
                                                   0.144708E+04  y-axis
                                                   0.149667E+04  z-axis
                                                   0.144950E+04     avg

     Note: Mobility are sorted by ascending values and might not correspond
                                              to the expected (x,y,z) axis.

     Total time so far
     SCAT         :  27203.36s CPU  28367.91s WALL (  189378 calls)
     MOB          :  27160.86s CPU  27867.31s WALL (     378 calls)

     Progression iq (fine) =     291000/    291222
     Creation of a restart point

     ===================================================================
     Temp [K]  Fermi [eV]  Hole density [cm^-3]  Hole mobility [cm^2/Vs]
     ===================================================================

      300.000      8.7213       0.999994E+18       0.141781E+04  x-axis
                                                   0.144358E+04  y-axis
                                                   0.146451E+04  z-axis
                                                   0.144197E+04     avg

     ===================================================================
     Temp [K]  Fermi [eV]  Elec density [cm^-3]  Elec mobility [cm^2/Vs]
     ===================================================================

      300.000      9.6430       0.100001E+19       0.139500E+04  x-axis
                                                   0.143688E+04  y-axis
                                                   0.148634E+04  z-axis
                                                   0.143941E+04     avg

     Note: Mobility are sorted by ascending values and might not correspond
                                              to the expected (x,y,z) axis.

     Total time so far
     SCAT         :  27275.28s CPU  28440.67s WALL (  189879 calls)
     MOB          :  27232.59s CPU  27939.80s WALL (     379 calls)

     Temperature  300.000 K
     Average over degenerate eigenstates is performed
     Average over degenerate eigenstates in CB is performed

     Writing scattering rate to file

     Creation of the final restart point

     ===================================================================
     Temp [K]  Fermi [eV]  Hole density [cm^-3]  Hole mobility [cm^2/Vs]
     ===================================================================

      300.000      8.7213       0.999994E+18       0.134106E+04  x-axis
                                                   0.136476E+04  y-axis
                                                   0.138468E+04  z-axis
                                                   0.136350E+04     avg

     ===================================================================
     Temp [K]  Fermi [eV]  Elec density [cm^-3]  Elec mobility [cm^2/Vs]
     ===================================================================

      300.000      9.6430       0.100001E+19       0.131956E+04  x-axis
                                                   0.135774E+04  y-axis
                                                   0.140427E+04  z-axis
                                                   0.136052E+04     avg

     Note: Mobility are sorted by ascending values and might not correspond
                                              to the expected (x,y,z) axis.

     Total time so far
     SCAT         :  27278.80s CPU  28453.15s WALL (  190102 calls)
     MOB          :  27304.26s CPU  28011.83s WALL (     380 calls)

     ===================================================================
     Memory usage:  VmHWM =       307Mb
                   VmPeak =      2190Mb
     ===================================================================

 
     Unfolding on the coarse grid
     elphon_wrap  :      0.01s CPU      0.02s WALL (       1 calls)
 
     INITIALIZATION: 
 
 
 
     Electron-Phonon interpolation
     ephwann      :  40566.79s CPU  42077.82s WALL (       1 calls)
     ep-interp    :  39611.93s CPU  41111.20s WALL (  189723 calls)
 
     DynW2B       :    316.35s CPU    325.33s WALL (  189723 calls)
     HamW2B       :   1798.58s CPU   1849.99s WALL ( 9865674 calls)
     ephW2Bp      :   3482.39s CPU   3583.42s WALL (  189723 calls)
 
 
     Total program execution
     EPW          :     11h16m CPU     11h41m WALL

                                                                                          
 Please consider citing:                                                                  
 S. Ponce, E. R. Margine, C. Verdi and F. Giustino, Comput. Phys. Commun. 209, 116 (2016) 
                                                                                          
 In addition, if you used anisotropic Eliashberg superconductivity please cite:           
              E. R. Margine and F. Giustino, Phys. Rev. B 87, 024505 (2013)               
              if you used transport properties (scattering rates, mobility) please cite:  
              S. Ponce, E. R. Margine and F. Giustino, Phys. Rev. B 97, 121201 (2018)     
