                                                                                      
                                       ``:oss/                                        
                           `.+s+.     .+ys--yh+     `./ss+.                           
                          -sh//yy+`   +yy   +yy    -+h+-oyy                           
                          -yh- .oyy/.-sh.   .syo-.:sy-  /yh                           
                 `.-.`    `yh+   -oyyyo.     `/syys:    oys      `.`                  
               `/+ssys+-` `sh+      `                   oys`   .:osyo`                
               -yh- ./syyooyo`                          .sys+/oyo--yh/                
               `yy+    .-:-.                             `-/+/:`  -sh-                
                /yh.                                              oys                 
          ``..---hho---------`   .---------..`      `.-----.`    -hd+---.             
       `./osmNMMMMMMMMMMMMMMMs. +NNMMMMMMMMNNmh+.   yNMMMMMNm-  oNMMMMMNmo++:`        
       +sy--/sdMMMhyyyyyyyNMMh- .oyNMMmyyyyyhNMMm+` -yMMMdyyo:` .oyyNMMNhs+syy`       
       -yy/   /MMM+.`-+/``mMMy-   `mMMh:`````.dMMN:` `MMMy-`-dhhy```mMMy:``+hs        
        -yy+` /MMMo:-mMM+`-oo/.    mMMh:     `dMMN/`  dMMm:`dMMMMy..MMMo-.+yo`        
         .sys`/MMMMNNMMMs-         mMMmyooooymMMNo:   oMMM/sMMMMMM++MMN//oh:          
          `sh+/MMMhyyMMMs- `-`     mMMMMMMMMMNmy+-`   -MMMhMMMsmMMmdMMd/yy+           
    `-/+++oyy-/MMM+.`/hh/.`mNm:`   mMMd+/////:-.`      NMMMMMd/:NMMMMMy:/yyo/:.`      
   +os+//:-..-oMMMo:--:::-/MMMo. .-mMMd+---`           hMMMMN+. oMMMMMo. `-+osyso:`   
   syo     `mNMMMMMNNNNNNNNMMMo.oNNMMMMMNNNN:`         +MMMMs:`  dMMMN/`     ``:syo   
   /yh`     :syyyyyyyyyyyyyyyy+.`+syyyyyyyyo:`         .oyys:`   .oyys:`        +yh   
   -yh-        ````````````````    `````````              ``        ``          oys   
   -+h/------------------------::::::::://////++++++++++++++++++++++///////::::/yd:   
   shdddddddddddddddddddddddddddddhhhhhhhhyyyyyssssssssssssssssyyyyyyyhhhhhhhddddh`   
                                                                                      
  S. Ponce, E. R. Margine, C. Verdi, and F. Giustino,                                 
                                                Comput. Phys. Commun. 209, 116 (2016) 
                                                                                      

     Program EPW v.5.1.0 starts on  7Aug2019 at 13:30: 2 

     This program is part of the open-source Quantum ESPRESSO suite
     for quantum simulation of materials; please cite
         "P. Giannozzi et al., J. Phys.:Condens. Matter 21 395502 (2009);
         "P. Giannozzi et al., J. Phys.:Condens. Matter 29 465901 (2017);
          URL http://www.quantum-espresso.org", 
     in publications or presentations arising from this work. More details at
     http://www.quantum-espresso.org/quote

     Parallel version (MPI & OpenMP), running on    1428 processor cores
     Number of MPI processes:              1428
     Threads/MPI process:                     1

     MPI processes distributed on    21 nodes
     K-points division:     npool     =    1428
                      
     ------------------------------------------------------------------------ 
                   RESTART - RESTART - RESTART - RESTART                         
     Restart is done without reading PWSCF save file.                  
     Be aware that some consistency checks are therefore not done.                  
     ------------------------------------------------------------------------ 
                      

     --                                                                         

     bravais-lattice index     =            0
     lattice parameter (a_0)   =       0.0000  a.u.
     unit-cell volume          =       0.0000 (a.u.)^3
     number of atoms/cell      =            0
     number of atomic types    =            0
     kinetic-energy cut-off    =       0.0000  Ry
     charge density cut-off    =       0.0000  Ry
     Exchange-correlation= not set
                           (  -1  -1  -1  -1  -1  -1  -1)


     celldm(1)=    0.00000  celldm(2)=    0.00000  celldm(3)=    0.00000
     celldm(4)=    0.00000  celldm(5)=    0.00000  celldm(6)=    0.00000

     crystal axes: (cart. coord. in units of a_0)
               a(1) = (  0.0000  0.0000  0.0000 )  
               a(2) = (  0.0000  0.0000  0.0000 )  
               a(3) = (  0.0000  0.0000  0.0000 )  

     reciprocal axes: (cart. coord. in units 2 pi/a_0)
               b(1) = (  0.0000  0.0000  0.0000 )  
               b(2) = (  0.0000  0.0000  0.0000 )  
               b(3) = (  0.0000  0.0000  0.0000 )  


     Atoms inside the unit cell: 

   Cartesian axes

     site n.  atom      mass           positions (a_0 units)

 
     No symmetry!
                                    s                        frac. trans.

     G cutoff =    0.0000  (      0 G-vectors)     FFT grid: (  0,  0,  0)
     number of k points=    0
                       cart. coord. in units 2pi/a_0

                       cryst. coord.
     EPW          :      0.03s CPU      0.18s WALL

     EPW          :      0.03s CPU      0.18s WALL

     No wavefunction gauge setting applied

     -------------------------------------------------------------------
     Using BAs.ukk from disk
     -------------------------------------------------------------------


     Using kmap and kgmap from disk

     Do not need to read .epb files; read .fmt files


     Band disentanglement is used:  nbndsub =    8

     Computes the analytic long-range interaction for polar materials [lpolar]
      
     Use zone-centred Wigner-Seitz cells 
     Number of WS vectors for electrons     1817
     Number of WS vectors for phonons      243
     Number of WS vectors for electron-phonon      243
     Maximum number of cores for efficient parallelization     1458
     Results may improve by using use_ws == .true. 

     Reading Hamiltonian, Dynamical matrix and EP vertex in Wann rep from file


     Reading interatomic force constants

     Read Z* and epsilon
     IFC last   -0.0000517
      Imposed simple ASR

     Finished reading ifcs


     Finished reading Wann rep data from file

     ===================================================================
     Memory usage:  VmHWM =        40Mb
                   VmPeak =      1841Mb
     ===================================================================
     
     Using uniform q-mesh:   72  72  72
     Size of q point mesh for interpolation:     373248
     Using uniform MP k-mesh:   72  72  72
     Size of k point mesh for interpolation:      50006
     Max number of k points per pool:               36

     Fermi energy coarse grid =   0.000000 eV

     ===================================================================

     Fermi energy is read from the input file: Ef =   9.110000 eV

     ===================================================================

              ibndmin =     2  ebndmin =     0.606
              ibndmax =     6  ebndmax =     0.733


     Number of ep-matrix elements per pool :         2700 ~=   21.09 Kb (@ 8 bytes/ DP)
     Number selected, total    2500    5757
     Number selected, total    5000   11688
     Number selected, total    7500   17974
     Number selected, total   10000   24389
     Number selected, total   12500   31826
     Number selected, total   15000   42113
     Number selected, total   17500   54693
     Number selected, total   20000   66080
     Number selected, total   22500   79281
     Number selected, total   25000   91549
     Number selected, total   27500  100508
     Number selected, total   30000  108187
     Number selected, total   32500  114572
     Number selected, total   35000  121110
     Number selected, total   37500  127648
     Number selected, total   40000  133809
     Number selected, total   42500  139861
     Number selected, total   45000  145854
     Number selected, total   47500  152339
     Number selected, total   50000  158836
     Number selected, total   52500  165778
     Number selected, total   55000  172563
     Number selected, total   57500  179367
     Number selected, total   60000  186892
     Number selected, total   62500  193967
     Number selected, total   65000  200516
     Number selected, total   67500  207620
     Number selected, total   70000  214315
     Number selected, total   72500  220774
     Number selected, total   75000  226937
     Number selected, total   77500  233459
     Number selected, total   80000  239884
     Number selected, total   82500  246665
     Number selected, total   85000  252869
     Number selected, total   87500  260023
     Number selected, total   90000  267936
     Number selected, total   92500  278648
     Number selected, total   95000  292445
     Number selected, total   97500  308477
     Number selected, total  100000  324260
     Number selected, total  102500  334778
     Number selected, total  105000  342286
     Number selected, total  107500  349511
     Number selected, total  110000  355799
     Number selected, total  112500  362098
     Number selected, total  115000  368003
     We only need to compute   117265 q-points
      

     Temperature  100.000 K
     Valence band maximum    =   8.545084 eV
     Conduction band minimum =   9.486997 eV
     Warning: too many iterations in bisection
     Ef =   0.000000
     Mobility VB Fermi level   0.000000 eV
     Valence band maximum    =   8.545084 eV
     Conduction band minimum =   9.486997 eV
     Mobility CB Fermi level   9.480677 eV

     Temperature  150.000 K
     Valence band maximum    =   8.545084 eV
     Conduction band minimum =   9.486997 eV
     Warning: too many iterations in bisection
     Ef =   0.000000
     Mobility VB Fermi level   0.000000 eV
     Valence band maximum    =   8.545084 eV
     Conduction band minimum =   9.486997 eV
     Mobility CB Fermi level   9.468969 eV

     Temperature  200.000 K
     Valence band maximum    =   8.545084 eV
     Conduction band minimum =   9.486997 eV
     Mobility VB Fermi level   8.555164 eV
     Valence band maximum    =   8.545084 eV
     Conduction band minimum =   9.486997 eV
     Mobility CB Fermi level   9.455185 eV

     Temperature  250.000 K
     Valence band maximum    =   8.545084 eV
     Conduction band minimum =   9.486997 eV
     Mobility VB Fermi level   8.568236 eV
     Valence band maximum    =   8.545084 eV
     Conduction band minimum =   9.486997 eV
     Mobility CB Fermi level   9.439799 eV

     Temperature  300.000 K
     Valence band maximum    =   8.545084 eV
     Conduction band minimum =   9.486997 eV
     Mobility VB Fermi level   8.583317 eV
     Valence band maximum    =   8.545084 eV
     Conduction band minimum =   9.486997 eV
     Mobility CB Fermi level   9.423101 eV

     Temperature  350.000 K
     Valence band maximum    =   8.545084 eV
     Conduction band minimum =   9.486997 eV
     Mobility VB Fermi level   8.600154 eV
     Valence band maximum    =   8.545084 eV
     Conduction band minimum =   9.486997 eV
     Mobility CB Fermi level   9.405270 eV

     Temperature  400.000 K
     Valence band maximum    =   8.545084 eV
     Conduction band minimum =   9.486997 eV
     Mobility VB Fermi level   8.618531 eV
     Valence band maximum    =   8.545084 eV
     Conduction band minimum =   9.486997 eV
     Mobility CB Fermi level   9.386417 eV

     Temperature  450.000 K
     Valence band maximum    =   8.545084 eV
     Conduction band minimum =   9.486997 eV
     Mobility VB Fermi level   8.638263 eV
     Valence band maximum    =   8.545084 eV
     Conduction band minimum =   9.486997 eV
     Mobility CB Fermi level   9.366611 eV

     Temperature  500.000 K
     Valence band maximum    =   8.545084 eV
     Conduction band minimum =   9.486997 eV
     Mobility VB Fermi level   8.659188 eV
     Valence band maximum    =   8.545084 eV
     Conduction band minimum =   9.486997 eV
     Mobility CB Fermi level   9.345897 eV

     ===================================================================
     Scattering rate
     ===================================================================


     Fermi Surface thickness =   0.870000 eV
     This is computed with respect to the fine Fermi level   9.110000 eV
     Only states between   8.240000 eV and   9.980000 eV will be included

     Progression iq (fine) =       2500/    117265
     Creation of a restart point

     ===================================================================
     Temp [K]  Fermi [eV]  Hole density [cm^-3]  Hole mobility [cm^2/Vs]
     ===================================================================

      100.000      0.0000       0.717510E+20       0.207034E+03  x-axis
                                                   0.125759E+04  y-axis
                                                   0.126635E+04  z-axis
                                                   0.910324E+03     avg
      150.000      0.0000       0.103129E+21       0.659660E+02  x-axis
                                                   0.400432E+03  y-axis
                                                   0.403285E+03  z-axis
                                                   0.289894E+03     avg
      200.000      8.5552       0.100000E+19       0.262896E+05  x-axis
                                                   0.264670E+05  y-axis
                                                   0.315567E+05  z-axis
                                                   0.281045E+05     avg
      250.000      8.5682       0.999995E+18       0.164955E+05  x-axis
                                                   0.165942E+05  y-axis
                                                   0.191094E+05  z-axis
                                                   0.173997E+05     avg
      300.000      8.5833       0.999995E+18       0.107722E+05  x-axis
                                                   0.108297E+05  y-axis
                                                   0.120704E+05  z-axis
                                                   0.112241E+05     avg
      350.000      8.6002       0.100000E+19       0.736624E+04  x-axis
                                                   0.740129E+04  y-axis
                                                   0.803948E+04  z-axis
                                                   0.760234E+04     avg
      400.000      8.6185       0.999992E+18       0.526702E+04  x-axis
                                                   0.528928E+04  y-axis
                                                   0.564136E+04  z-axis
                                                   0.539922E+04     avg
      450.000      8.6383       0.999999E+18       0.391944E+04  x-axis
                                                   0.393405E+04  y-axis
                                                   0.414635E+04  z-axis
                                                   0.399995E+04     avg
      500.000      8.6592       0.100000E+19       0.301918E+04  x-axis
                                                   0.302903E+04  y-axis
                                                   0.317023E+04  z-axis
                                                   0.307281E+04     avg

     ===================================================================
     Temp [K]  Fermi [eV]  Elec density [cm^-3]  Elec mobility [cm^2/Vs]
     ===================================================================

      100.000      9.4807       0.999998E+18       0.124635E+05  x-axis
                                                   0.448857E+05  y-axis
                                                   0.496796E+05  z-axis
                                                   0.356763E+05     avg
      150.000      9.4690       0.100000E+19       0.762679E+04  x-axis
                                                   0.297372E+05  y-axis
                                                   0.321360E+05  z-axis
                                                   0.231667E+05     avg
      200.000      9.4552       0.999995E+18       0.543754E+04  x-axis
                                                   0.218193E+05  y-axis
                                                   0.232147E+05  z-axis
                                                   0.168239E+05     avg
      250.000      9.4398       0.100000E+19       0.418843E+04  x-axis
                                                   0.168254E+05  y-axis
                                                   0.177081E+05  z-axis
                                                   0.129073E+05     avg
      300.000      9.4231       0.100000E+19       0.337671E+04  x-axis
                                                   0.134228E+05  y-axis
                                                   0.140152E+05  z-axis
                                                   0.102716E+05     avg
      350.000      9.4053       0.999991E+18       0.280716E+04  x-axis
                                                   0.109980E+05  y-axis
                                                   0.114138E+05  z-axis
                                                   0.840631E+04     avg
      400.000      9.3864       0.999990E+18       0.238709E+04  x-axis
                                                   0.920595E+04  y-axis
                                                   0.950819E+04  z-axis
                                                   0.703374E+04     avg
      450.000      9.3666       0.100000E+19       0.206582E+04  x-axis
                                                   0.783801E+04  y-axis
                                                   0.806375E+04  z-axis
                                                   0.598919E+04     avg
      500.000      9.3459       0.100000E+19       0.181298E+04  x-axis
                                                   0.676363E+04  y-axis
                                                   0.693594E+04  z-axis
                                                   0.517085E+04     avg

     Note: Mobility are sorted by ascending values and might not correspond
                                              to the expected (x,y,z) axis.

     Total time so far
     SCAT         :     11.69s CPU     11.97s WALL (    2500 calls)
     MOB          :      8.01s CPU      8.09s WALL (       1 calls)

     Progression iq (fine) =       5000/    117265
     Creation of a restart point

     ===================================================================
     Temp [K]  Fermi [eV]  Hole density [cm^-3]  Hole mobility [cm^2/Vs]
     ===================================================================

      100.000      0.0000       0.717510E+20       0.135229E+03  x-axis
                                                   0.874432E+03  y-axis
                                                   0.880611E+03  z-axis
                                                   0.630091E+03     avg
      150.000      0.0000       0.103129E+21       0.433730E+02  x-axis
                                                   0.279188E+03  y-axis
                                                   0.281217E+03  z-axis
                                                   0.201259E+03     avg
      200.000      8.5552       0.100000E+19       0.194865E+05  x-axis
                                                   0.196242E+05  y-axis
                                                   0.248410E+05  z-axis
                                                   0.213173E+05     avg
      250.000      8.5682       0.999995E+18       0.118667E+05  x-axis
                                                   0.119410E+05  y-axis
                                                   0.144493E+05  z-axis
                                                   0.127523E+05     avg
      300.000      8.5833       0.999995E+18       0.758017E+04  x-axis
                                                   0.762245E+04  y-axis
                                                   0.887010E+04  z-axis
                                                   0.802424E+04     avg
      350.000      8.6002       0.100000E+19       0.509112E+04  x-axis
                                                   0.511649E+04  y-axis
                                                   0.577989E+04  z-axis
                                                   0.532917E+04     avg
      400.000      8.6185       0.999992E+18       0.358400E+04  x-axis
                                                   0.359994E+04  y-axis
                                                   0.398317E+04  z-axis
                                                   0.372237E+04     avg
      450.000      8.6383       0.999999E+18       0.263022E+04  x-axis
                                                   0.264062E+04  y-axis
                                                   0.288240E+04  z-axis
                                                   0.271775E+04     avg
      500.000      8.6592       0.100000E+19       0.200089E+04  x-axis
                                                   0.200789E+04  y-axis
                                                   0.217391E+04  z-axis
                                                   0.206089E+04     avg

     ===================================================================
     Temp [K]  Fermi [eV]  Elec density [cm^-3]  Elec mobility [cm^2/Vs]
     ===================================================================

      100.000      9.4807       0.999998E+18       0.101285E+05  x-axis
                                                   0.294417E+05  y-axis
                                                   0.324917E+05  z-axis
                                                   0.240206E+05     avg
      150.000      9.4690       0.100000E+19       0.598664E+04  x-axis
                                                   0.191049E+05  y-axis
                                                   0.206206E+05  z-axis
                                                   0.152374E+05     avg
      200.000      9.4552       0.999995E+18       0.412285E+04  x-axis
                                                   0.137956E+05  y-axis
                                                   0.146725E+05  z-axis
                                                   0.108636E+05     avg
      250.000      9.4398       0.100000E+19       0.306989E+04  x-axis
                                                   0.104976E+05  y-axis
                                                   0.110498E+05  z-axis
                                                   0.820576E+04     avg
      300.000      9.4231       0.100000E+19       0.240023E+04  x-axis
                                                   0.828515E+04  y-axis
                                                   0.865420E+04  z-axis
                                                   0.644652E+04     avg
      350.000      9.4053       0.999991E+18       0.194341E+04  x-axis
                                                   0.673246E+04  y-axis
                                                   0.699065E+04  z-axis
                                                   0.522217E+04     avg
      400.000      9.3864       0.999990E+18       0.161647E+04  x-axis
                                                   0.560102E+04  y-axis
                                                   0.578820E+04  z-axis
                                                   0.433523E+04     avg
      450.000      9.3666       0.100000E+19       0.137366E+04  x-axis
                                                   0.474777E+04  y-axis
                                                   0.488733E+04  z-axis
                                                   0.366959E+04     avg
      500.000      9.3459       0.100000E+19       0.118771E+04  x-axis
                                                   0.408428E+04  y-axis
                                                   0.419071E+04  z-axis
                                                   0.315423E+04     avg

     Note: Mobility are sorted by ascending values and might not correspond
                                              to the expected (x,y,z) axis.

     Total time so far
     SCAT         :     23.22s CPU     23.67s WALL (    5001 calls)
     MOB          :     15.99s CPU     16.15s WALL (       2 calls)

     Progression iq (fine) =       7500/    117265
     Creation of a restart point

     ===================================================================
     Temp [K]  Fermi [eV]  Hole density [cm^-3]  Hole mobility [cm^2/Vs]
     ===================================================================

      100.000      0.0000       0.717510E+20       0.123141E+03  x-axis
                                                   0.817927E+03  y-axis
                                                   0.823613E+03  z-axis
                                                   0.588227E+03     avg
      150.000      0.0000       0.103129E+21       0.395006E+02  x-axis
                                                   0.260554E+03  y-axis
                                                   0.262421E+03  z-axis
                                                   0.187492E+03     avg
      200.000      8.5552       0.100000E+19       0.180826E+05  x-axis
                                                   0.182143E+05  y-axis
                                                   0.234134E+05  z-axis
                                                   0.199035E+05     avg
      250.000      8.5682       0.999995E+18       0.106862E+05  x-axis
                                                   0.107549E+05  y-axis
                                                   0.132030E+05  z-axis
                                                   0.115480E+05     avg
      300.000      8.5833       0.999995E+18       0.666912E+04  x-axis
                                                   0.670713E+04  y-axis
                                                   0.790993E+04  z-axis
                                                   0.709540E+04     avg
      350.000      8.6002       0.100000E+19       0.439941E+04  x-axis
                                                   0.442172E+04  y-axis
                                                   0.505851E+04  z-axis
                                                   0.462655E+04     avg
      400.000      8.6185       0.999992E+18       0.305254E+04  x-axis
                                                   0.306633E+04  y-axis
                                                   0.343451E+04  z-axis
                                                   0.318446E+04     avg
      450.000      8.6383       0.999999E+18       0.221314E+04  x-axis
                                                   0.222203E+04  y-axis
                                                   0.245494E+04  z-axis
                                                   0.229670E+04     avg
      500.000      8.6592       0.100000E+19       0.166599E+04  x-axis
                                                   0.167191E+04  y-axis
                                                   0.183213E+04  z-axis
                                                   0.172334E+04     avg

     ===================================================================
     Temp [K]  Fermi [eV]  Elec density [cm^-3]  Elec mobility [cm^2/Vs]
     ===================================================================

      100.000      9.4807       0.999998E+18       0.948852E+04  x-axis
                                                   0.252482E+05  y-axis
                                                   0.279257E+05  z-axis
                                                   0.208875E+05     avg
      150.000      9.4690       0.100000E+19       0.545944E+04  x-axis
                                                   0.156196E+05  y-axis
                                                   0.168848E+05  z-axis
                                                   0.126546E+05     avg
      200.000      9.4552       0.999995E+18       0.366084E+04  x-axis
                                                   0.109442E+05  y-axis
                                                   0.116496E+05  z-axis
                                                   0.875157E+04     avg
      250.000      9.4398       0.100000E+19       0.266126E+04  x-axis
                                                   0.817513E+04  y-axis
                                                   0.860730E+04  z-axis
                                                   0.648123E+04     avg
      300.000      9.4231       0.100000E+19       0.204022E+04  x-axis
                                                   0.638017E+04  y-axis
                                                   0.666318E+04  z-axis
                                                   0.502785E+04     avg
      350.000      9.4053       0.999991E+18       0.162676E+04  x-axis
                                                   0.514952E+04  y-axis
                                                   0.534449E+04  z-axis
                                                   0.404025E+04     avg
      400.000      9.3864       0.999990E+18       0.133747E+04  x-axis
                                                   0.426647E+04  y-axis
                                                   0.440618E+04  z-axis
                                                   0.333671E+04     avg
      450.000      9.3666       0.100000E+19       0.112688E+04  x-axis
                                                   0.360717E+04  y-axis
                                                   0.371044E+04  z-axis
                                                   0.281483E+04     avg
      500.000      9.3459       0.100000E+19       0.968360E+03  x-axis
                                                   0.309779E+04  y-axis
                                                   0.317601E+04  z-axis
                                                   0.241405E+04     avg

     Note: Mobility are sorted by ascending values and might not correspond
                                              to the expected (x,y,z) axis.

     Total time so far
     SCAT         :     34.22s CPU     34.81s WALL (    7502 calls)
     MOB          :     23.97s CPU     24.20s WALL (       3 calls)

     Progression iq (fine) =      10000/    117265
     Creation of a restart point

     ===================================================================
     Temp [K]  Fermi [eV]  Hole density [cm^-3]  Hole mobility [cm^2/Vs]
     ===================================================================

      100.000      0.0000       0.717510E+20       0.123043E+03  x-axis
                                                   0.815545E+03  y-axis
                                                   0.821224E+03  z-axis
                                                   0.586604E+03     avg
      150.000      0.0000       0.103129E+21       0.394502E+02  x-axis
                                                   0.259614E+03  y-axis
                                                   0.261478E+03  z-axis
                                                   0.186847E+03     avg
      200.000      8.5552       0.100000E+19       0.176614E+05  x-axis
                                                   0.177902E+05  y-axis
                                                   0.229013E+05  z-axis
                                                   0.194510E+05     avg
      250.000      8.5682       0.999995E+18       0.102363E+05  x-axis
                                                   0.103025E+05  y-axis
                                                   0.126909E+05  z-axis
                                                   0.110765E+05     avg
      300.000      8.5833       0.999995E+18       0.627666E+04  x-axis
                                                   0.631275E+04  y-axis
                                                   0.749076E+04  z-axis
                                                   0.669339E+04     avg
      350.000      8.6002       0.100000E+19       0.408073E+04  x-axis
                                                   0.410168E+04  y-axis
                                                   0.473462E+04  z-axis
                                                   0.430567E+04     avg
      400.000      8.6185       0.999992E+18       0.279805E+04  x-axis
                                                   0.281088E+04  y-axis
                                                   0.318476E+04  z-axis
                                                   0.293123E+04     avg
      450.000      8.6383       0.999999E+18       0.200876E+04  x-axis
                                                   0.201698E+04  y-axis
                                                   0.225892E+04  z-axis
                                                   0.209489E+04     avg
      500.000      8.6592       0.100000E+19       0.149958E+04  x-axis
                                                   0.150503E+04  y-axis
                                                   0.167473E+04  z-axis
                                                   0.155978E+04     avg

     ===================================================================
     Temp [K]  Fermi [eV]  Elec density [cm^-3]  Elec mobility [cm^2/Vs]
     ===================================================================

      100.000      9.4807       0.999998E+18       0.921085E+04  x-axis
                                                   0.239938E+05  y-axis
                                                   0.265675E+05  z-axis
                                                   0.199240E+05     avg
      150.000      9.4690       0.100000E+19       0.520242E+04  x-axis
                                                   0.142839E+05  y-axis
                                                   0.154585E+05  z-axis
                                                   0.116483E+05     avg
      200.000      9.4552       0.999995E+18       0.344011E+04  x-axis
                                                   0.974023E+04  y-axis
                                                   0.103766E+05  z-axis
                                                   0.785233E+04     avg
      250.000      9.4398       0.100000E+19       0.247250E+04  x-axis
                                                   0.714829E+04  y-axis
                                                   0.752948E+04  z-axis
                                                   0.571675E+04     avg
      300.000      9.4231       0.100000E+19       0.187697E+04  x-axis
                                                   0.551309E+04  y-axis
                                                   0.575827E+04  z-axis
                                                   0.438277E+04     avg
      350.000      9.4053       0.999991E+18       0.148360E+04  x-axis
                                                   0.441182E+04  y-axis
                                                   0.457830E+04  z-axis
                                                   0.349124E+04     avg
      400.000      9.3864       0.999990E+18       0.121037E+04  x-axis
                                                   0.363086E+04  y-axis
                                                   0.374876E+04  z-axis
                                                   0.286333E+04     avg
      450.000      9.3666       0.100000E+19       0.101296E+04  x-axis
                                                   0.305253E+04  y-axis
                                                   0.313883E+04  z-axis
                                                   0.240144E+04     avg
      500.000      9.3459       0.100000E+19       0.865555E+03  x-axis
                                                   0.260850E+04  y-axis
                                                   0.267333E+04  z-axis
                                                   0.204913E+04     avg

     Note: Mobility are sorted by ascending values and might not correspond
                                              to the expected (x,y,z) axis.

     Total time so far
     SCAT         :     45.13s CPU     46.43s WALL (   10003 calls)
     MOB          :     31.88s CPU     32.17s WALL (       4 calls)

     Progression iq (fine) =      12500/    117265
     Creation of a restart point

     ===================================================================
     Temp [K]  Fermi [eV]  Hole density [cm^-3]  Hole mobility [cm^2/Vs]
     ===================================================================

      100.000      0.0000       0.717510E+20       0.123043E+03  x-axis
                                                   0.815544E+03  y-axis
                                                   0.821223E+03  z-axis
                                                   0.586604E+03     avg
      150.000      0.0000       0.103129E+21       0.394484E+02  x-axis
                                                   0.259608E+03  y-axis
                                                   0.261471E+03  z-axis
                                                   0.186843E+03     avg
      200.000      8.5552       0.100000E+19       0.174241E+05  x-axis
                                                   0.175511E+05  y-axis
                                                   0.226347E+05  z-axis
                                                   0.192033E+05     avg
      250.000      8.5682       0.999995E+18       0.997356E+04  x-axis
                                                   0.100381E+05  y-axis
                                                   0.124085E+05  z-axis
                                                   0.108067E+05     avg
      300.000      8.5833       0.999995E+18       0.604249E+04  x-axis
                                                   0.607733E+04  y-axis
                                                   0.725048E+04  z-axis
                                                   0.645677E+04     avg
      350.000      8.6002       0.100000E+19       0.388645E+04  x-axis
                                                   0.390653E+04  y-axis
                                                   0.454254E+04  z-axis
                                                   0.411184E+04     avg
      400.000      8.6185       0.999992E+18       0.263921E+04  x-axis
                                                   0.265145E+04  y-axis
                                                   0.303188E+04  z-axis
                                                   0.277418E+04     avg
      450.000      8.6383       0.999999E+18       0.187804E+04  x-axis
                                                   0.188584E+04  y-axis
                                                   0.213539E+04  z-axis
                                                   0.196642E+04     avg
      500.000      8.6592       0.100000E+19       0.139051E+04  x-axis
                                                   0.139567E+04  y-axis
                                                   0.157290E+04  z-axis
                                                   0.145303E+04     avg

     ===================================================================
     Temp [K]  Fermi [eV]  Elec density [cm^-3]  Elec mobility [cm^2/Vs]
     ===================================================================

      100.000      9.4807       0.999998E+18       0.909571E+04  x-axis
                                                   0.236796E+05  y-axis
                                                   0.262300E+05  z-axis
                                                   0.196684E+05     avg
      150.000      9.4690       0.100000E+19       0.505291E+04  x-axis
                                                   0.137820E+05  y-axis
                                                   0.149273E+05  z-axis
                                                   0.112541E+05     avg
      200.000      9.4552       0.999995E+18       0.328375E+04  x-axis
                                                   0.917695E+04  y-axis
                                                   0.978644E+04  z-axis
                                                   0.741571E+04     avg
      250.000      9.4398       0.100000E+19       0.231665E+04  x-axis
                                                   0.658472E+04  y-axis
                                                   0.694324E+04  z-axis
                                                   0.528154E+04     avg
      300.000      9.4231       0.100000E+19       0.172568E+04  x-axis
                                                   0.497368E+04  y-axis
                                                   0.520022E+04  z-axis
                                                   0.396653E+04     avg
      350.000      9.4053       0.999991E+18       0.133976E+04  x-axis
                                                   0.390558E+04  y-axis
                                                   0.405682E+04  z-axis
                                                   0.310072E+04     avg
      400.000      9.3864       0.999990E+18       0.107573E+04  x-axis
                                                   0.316051E+04  y-axis
                                                   0.326594E+04  z-axis
                                                   0.250073E+04     avg
      450.000      9.3666       0.100000E+19       0.888357E+03  x-axis
                                                   0.261818E+04  y-axis
                                                   0.269423E+04  z-axis
                                                   0.206692E+04     avg
      500.000      9.3459       0.100000E+19       0.751160E+03  x-axis
                                                   0.220901E+04  y-axis
                                                   0.226540E+04  z-axis
                                                   0.174186E+04     avg

     Note: Mobility are sorted by ascending values and might not correspond
                                              to the expected (x,y,z) axis.

     Total time so far
     SCAT         :     55.32s CPU     56.77s WALL (   12504 calls)
     MOB          :     39.85s CPU     40.22s WALL (       5 calls)

     Progression iq (fine) =      15000/    117265
     Creation of a restart point

     ===================================================================
     Temp [K]  Fermi [eV]  Hole density [cm^-3]  Hole mobility [cm^2/Vs]
     ===================================================================

      100.000      0.0000       0.717510E+20       0.123043E+03  x-axis
                                                   0.815544E+03  y-axis
                                                   0.821223E+03  z-axis
                                                   0.586604E+03     avg
      150.000      0.0000       0.103129E+21       0.394484E+02  x-axis
                                                   0.259608E+03  y-axis
                                                   0.261471E+03  z-axis
                                                   0.186843E+03     avg
      200.000      8.5552       0.100000E+19       0.174028E+05  x-axis
                                                   0.175297E+05  y-axis
                                                   0.226225E+05  z-axis
                                                   0.191850E+05     avg
      250.000      8.5682       0.999995E+18       0.994226E+04  x-axis
                                                   0.100067E+05  y-axis
                                                   0.123919E+05  z-axis
                                                   0.107803E+05     avg
      300.000      8.5833       0.999995E+18       0.600866E+04  x-axis
                                                   0.604347E+04  y-axis
                                                   0.723306E+04  z-axis
                                                   0.642840E+04     avg
      350.000      8.6002       0.100000E+19       0.385411E+04  x-axis
                                                   0.387417E+04  y-axis
                                                   0.452579E+04  z-axis
                                                   0.408469E+04     avg
      400.000      8.6185       0.999992E+18       0.260978E+04  x-axis
                                                   0.262200E+04  y-axis
                                                   0.301615E+04  z-axis
                                                   0.274931E+04     avg
      450.000      8.6383       0.999999E+18       0.185174E+04  x-axis
                                                   0.185953E+04  y-axis
                                                   0.212071E+04  z-axis
                                                   0.194399E+04     avg
      500.000      8.6592       0.100000E+19       0.136713E+04  x-axis
                                                   0.137228E+04  y-axis
                                                   0.155921E+04  z-axis
                                                   0.143287E+04     avg

     ===================================================================
     Temp [K]  Fermi [eV]  Elec density [cm^-3]  Elec mobility [cm^2/Vs]
     ===================================================================

      100.000      9.4807       0.999998E+18       0.908988E+04  x-axis
                                                   0.236704E+05  y-axis
                                                   0.262206E+05  z-axis
                                                   0.196603E+05     avg
      150.000      9.4690       0.100000E+19       0.502499E+04  x-axis
                                                   0.137380E+05  y-axis
                                                   0.148822E+05  z-axis
                                                   0.112151E+05     avg
      200.000      9.4552       0.999995E+18       0.323012E+04  x-axis
                                                   0.909265E+04  y-axis
                                                   0.970028E+04  z-axis
                                                   0.734102E+04     avg
      250.000      9.4398       0.100000E+19       0.224565E+04  x-axis
                                                   0.646893E+04  y-axis
                                                   0.682527E+04  z-axis
                                                   0.517995E+04     avg
      300.000      9.4231       0.100000E+19       0.164693E+04  x-axis
                                                   0.483712E+04  y-axis
                                                   0.506144E+04  z-axis
                                                   0.384850E+04     avg
      350.000      9.4053       0.999991E+18       0.125996E+04  x-axis
                                                   0.375710E+04  y-axis
                                                   0.390622E+04  z-axis
                                                   0.297443E+04     avg
      400.000      9.3864       0.999990E+18       0.998705E+03  x-axis
                                                   0.300671E+04  y-axis
                                                   0.311018E+04  z-axis
                                                   0.237187E+04     avg
      450.000      9.3666       0.100000E+19       0.816008E+03  x-axis
                                                   0.246378E+04  y-axis
                                                   0.253806E+04  z-axis
                                                   0.193928E+04     avg
      500.000      9.3459       0.100000E+19       0.684289E+03  x-axis
                                                   0.205731E+04  y-axis
                                                   0.211213E+04  z-axis
                                                   0.161791E+04     avg

     Note: Mobility are sorted by ascending values and might not correspond
                                              to the expected (x,y,z) axis.

     Total time so far
     SCAT         :     64.54s CPU     66.80s WALL (   15005 calls)
     MOB          :     47.77s CPU     48.26s WALL (       6 calls)

     Progression iq (fine) =      17500/    117265
     Creation of a restart point

     ===================================================================
     Temp [K]  Fermi [eV]  Hole density [cm^-3]  Hole mobility [cm^2/Vs]
     ===================================================================

      100.000      0.0000       0.717510E+20       0.123043E+03  x-axis
                                                   0.815544E+03  y-axis
                                                   0.821223E+03  z-axis
                                                   0.586604E+03     avg
      150.000      0.0000       0.103129E+21       0.394484E+02  x-axis
                                                   0.259608E+03  y-axis
                                                   0.261471E+03  z-axis
                                                   0.186843E+03     avg
      200.000      8.5552       0.100000E+19       0.174022E+05  x-axis
                                                   0.175292E+05  y-axis
                                                   0.226224E+05  z-axis
                                                   0.191846E+05     avg
      250.000      8.5682       0.999995E+18       0.994060E+04  x-axis
                                                   0.100051E+05  y-axis
                                                   0.123915E+05  z-axis
                                                   0.107791E+05     avg
      300.000      8.5833       0.999995E+18       0.600574E+04  x-axis
                                                   0.604055E+04  y-axis
                                                   0.723227E+04  z-axis
                                                   0.642618E+04     avg
      350.000      8.6002       0.100000E+19       0.385015E+04  x-axis
                                                   0.387021E+04  y-axis
                                                   0.452450E+04  z-axis
                                                   0.408162E+04     avg
      400.000      8.6185       0.999992E+18       0.260514E+04  x-axis
                                                   0.261736E+04  y-axis
                                                   0.301441E+04  z-axis
                                                   0.274564E+04     avg
      450.000      8.6383       0.999999E+18       0.184675E+04  x-axis
                                                   0.185454E+04  y-axis
                                                   0.211861E+04  z-axis
                                                   0.193997E+04     avg
      500.000      8.6592       0.100000E+19       0.136205E+04  x-axis
                                                   0.136720E+04  y-axis
                                                   0.155687E+04  z-axis
                                                   0.142871E+04     avg

     ===================================================================
     Temp [K]  Fermi [eV]  Elec density [cm^-3]  Elec mobility [cm^2/Vs]
     ===================================================================

      100.000      9.4807       0.999998E+18       0.903021E+04  x-axis
                                                   0.236449E+05  y-axis
                                                   0.261947E+05  z-axis
                                                   0.196233E+05     avg
      150.000      9.4690       0.100000E+19       0.491417E+04  x-axis
                                                   0.136746E+05  y-axis
                                                   0.148184E+05  z-axis
                                                   0.111357E+05     avg
      200.000      9.4552       0.999995E+18       0.308649E+04  x-axis
                                                   0.898960E+04  y-axis
                                                   0.959674E+04  z-axis
                                                   0.722428E+04     avg
      250.000      9.4398       0.100000E+19       0.209479E+04  x-axis
                                                   0.634032E+04  y-axis
                                                   0.669614E+04  z-axis
                                                   0.504375E+04     avg
      300.000      9.4231       0.100000E+19       0.150449E+04  x-axis
                                                   0.469723E+04  y-axis
                                                   0.492110E+04  z-axis
                                                   0.370761E+04     avg
      350.000      9.4053       0.999991E+18       0.113185E+04  x-axis
                                                   0.361499E+04  y-axis
                                                   0.376377E+04  z-axis
                                                   0.283687E+04     avg
      400.000      9.3864       0.999990E+18       0.885855E+03  x-axis
                                                   0.286729E+04  y-axis
                                                   0.297052E+04  z-axis
                                                   0.224122E+04     avg
      450.000      9.3666       0.100000E+19       0.717371E+03  x-axis
                                                   0.232958E+04  y-axis
                                                   0.240369E+04  z-axis
                                                   0.181688E+04     avg
      500.000      9.3459       0.100000E+19       0.598235E+03  x-axis
                                                   0.192960E+04  y-axis
                                                   0.198429E+04  z-axis
                                                   0.150404E+04     avg

     Note: Mobility are sorted by ascending values and might not correspond
                                              to the expected (x,y,z) axis.

     Total time so far
     SCAT         :     73.16s CPU     75.64s WALL (   17506 calls)
     MOB          :     55.71s CPU     56.36s WALL (       7 calls)

     Progression iq (fine) =      20000/    117265
     Creation of a restart point

     ===================================================================
     Temp [K]  Fermi [eV]  Hole density [cm^-3]  Hole mobility [cm^2/Vs]
     ===================================================================

      100.000      0.0000       0.717510E+20       0.123043E+03  x-axis
                                                   0.815544E+03  y-axis
                                                   0.821223E+03  z-axis
                                                   0.586604E+03     avg
      150.000      0.0000       0.103129E+21       0.394484E+02  x-axis
                                                   0.259608E+03  y-axis
                                                   0.261471E+03  z-axis
                                                   0.186843E+03     avg
      200.000      8.5552       0.100000E+19       0.174022E+05  x-axis
                                                   0.175292E+05  y-axis
                                                   0.226224E+05  z-axis
                                                   0.191846E+05     avg
      250.000      8.5682       0.999995E+18       0.994056E+04  x-axis
                                                   0.100050E+05  y-axis
                                                   0.123915E+05  z-axis
                                                   0.107790E+05     avg
      300.000      8.5833       0.999995E+18       0.600563E+04  x-axis
                                                   0.604044E+04  y-axis
                                                   0.723222E+04  z-axis
                                                   0.642610E+04     avg
      350.000      8.6002       0.100000E+19       0.384993E+04  x-axis
                                                   0.386999E+04  y-axis
                                                   0.452439E+04  z-axis
                                                   0.408144E+04     avg
      400.000      8.6185       0.999992E+18       0.260479E+04  x-axis
                                                   0.261701E+04  y-axis
                                                   0.301424E+04  z-axis
                                                   0.274535E+04     avg
      450.000      8.6383       0.999999E+18       0.184628E+04  x-axis
                                                   0.185407E+04  y-axis
                                                   0.211838E+04  z-axis
                                                   0.193958E+04     avg
      500.000      8.6592       0.100000E+19       0.136149E+04  x-axis
                                                   0.136664E+04  y-axis
                                                   0.155657E+04  z-axis
                                                   0.142823E+04     avg

     ===================================================================
     Temp [K]  Fermi [eV]  Elec density [cm^-3]  Elec mobility [cm^2/Vs]
     ===================================================================

      100.000      9.4807       0.999998E+18       0.881237E+04  x-axis
                                                   0.234788E+05  y-axis
                                                   0.260221E+05  z-axis
                                                   0.194378E+05     avg
      150.000      9.4690       0.100000E+19       0.472312E+04  x-axis
                                                   0.134833E+05  y-axis
                                                   0.146219E+05  z-axis
                                                   0.109428E+05     avg
      200.000      9.4552       0.999995E+18       0.291771E+04  x-axis
                                                   0.878966E+04  y-axis
                                                   0.939267E+04  z-axis
                                                   0.703335E+04     avg
      250.000      9.4398       0.100000E+19       0.195187E+04  x-axis
                                                   0.614824E+04  y-axis
                                                   0.650074E+04  z-axis
                                                   0.486695E+04     avg
      300.000      9.4231       0.100000E+19       0.138661E+04  x-axis
                                                   0.452176E+04  y-axis
                                                   0.474303E+04  z-axis
                                                   0.355047E+04     avg
      350.000      9.4053       0.999991E+18       0.103513E+04  x-axis
                                                   0.345816E+04  y-axis
                                                   0.360494E+04  z-axis
                                                   0.269941E+04     avg
      400.000      9.3864       0.999990E+18       0.806043E+03  x-axis
                                                   0.272799E+04  y-axis
                                                   0.282969E+04  z-axis
                                                   0.212124E+04     avg
      450.000      9.3666       0.100000E+19       0.650898E+03  x-axis
                                                   0.220576E+04  y-axis
                                                   0.227870E+04  z-axis
                                                   0.171179E+04     avg
      500.000      9.3459       0.100000E+19       0.542320E+03  x-axis
                                                   0.181918E+04  y-axis
                                                   0.187297E+04  z-axis
                                                   0.141149E+04     avg

     Note: Mobility are sorted by ascending values and might not correspond
                                              to the expected (x,y,z) axis.

     Total time so far
     SCAT         :     82.01s CPU     85.25s WALL (   20007 calls)
     MOB          :     63.66s CPU     64.38s WALL (       8 calls)

     Progression iq (fine) =      22500/    117265
     Creation of a restart point

     ===================================================================
     Temp [K]  Fermi [eV]  Hole density [cm^-3]  Hole mobility [cm^2/Vs]
     ===================================================================

      100.000      0.0000       0.717510E+20       0.123043E+03  x-axis
                                                   0.815544E+03  y-axis
                                                   0.821223E+03  z-axis
                                                   0.586604E+03     avg
      150.000      0.0000       0.103129E+21       0.394484E+02  x-axis
                                                   0.259608E+03  y-axis
                                                   0.261471E+03  z-axis
                                                   0.186843E+03     avg
      200.000      8.5552       0.100000E+19       0.174022E+05  x-axis
                                                   0.175292E+05  y-axis
                                                   0.226224E+05  z-axis
                                                   0.191846E+05     avg
      250.000      8.5682       0.999995E+18       0.994056E+04  x-axis
                                                   0.100050E+05  y-axis
                                                   0.123915E+05  z-axis
                                                   0.107790E+05     avg
      300.000      8.5833       0.999995E+18       0.600563E+04  x-axis
                                                   0.604044E+04  y-axis
                                                   0.723222E+04  z-axis
                                                   0.642610E+04     avg
      350.000      8.6002       0.100000E+19       0.384993E+04  x-axis
                                                   0.386998E+04  y-axis
                                                   0.452439E+04  z-axis
                                                   0.408143E+04     avg
      400.000      8.6185       0.999992E+18       0.260478E+04  x-axis
                                                   0.261700E+04  y-axis
                                                   0.301423E+04  z-axis
                                                   0.274534E+04     avg
      450.000      8.6383       0.999999E+18       0.184627E+04  x-axis
                                                   0.185406E+04  y-axis
                                                   0.211837E+04  z-axis
                                                   0.193957E+04     avg
      500.000      8.6592       0.100000E+19       0.136148E+04  x-axis
                                                   0.136662E+04  y-axis
                                                   0.155657E+04  z-axis
                                                   0.142822E+04     avg

     ===================================================================
     Temp [K]  Fermi [eV]  Elec density [cm^-3]  Elec mobility [cm^2/Vs]
     ===================================================================

      100.000      9.4807       0.999998E+18       0.852684E+04  x-axis
                                                   0.229466E+05  y-axis
                                                   0.254589E+05  z-axis
                                                   0.189774E+05     avg
      150.000      9.4690       0.100000E+19       0.450364E+04  x-axis
                                                   0.130389E+05  y-axis
                                                   0.141571E+05  z-axis
                                                   0.105665E+05     avg
      200.000      9.4552       0.999995E+18       0.274183E+04  x-axis
                                                   0.840699E+04  y-axis
                                                   0.899541E+04  z-axis
                                                   0.671474E+04     avg
      250.000      9.4398       0.100000E+19       0.181151E+04  x-axis
                                                   0.581905E+04  y-axis
                                                   0.616074E+04  z-axis
                                                   0.459710E+04     avg
      300.000      9.4231       0.100000E+19       0.127510E+04  x-axis
                                                   0.424103E+04  y-axis
                                                   0.445425E+04  z-axis
                                                   0.332346E+04     avg
      350.000      9.4053       0.999991E+18       0.946037E+03  x-axis
                                                   0.321950E+04  y-axis
                                                   0.336027E+04  z-axis
                                                   0.250860E+04     avg
      400.000      9.3864       0.999990E+18       0.734059E+03  x-axis
                                                   0.252470E+04  y-axis
                                                   0.262188E+04  z-axis
                                                   0.196021E+04     avg
      450.000      9.3666       0.100000E+19       0.591992E+03  x-axis
                                                   0.203182E+04  y-axis
                                                   0.210133E+04  z-axis
                                                   0.157505E+04     avg
      500.000      9.3459       0.100000E+19       0.493528E+03  x-axis
                                                   0.166954E+04  y-axis
                                                   0.172070E+04  z-axis
                                                   0.129459E+04     avg

     Note: Mobility are sorted by ascending values and might not correspond
                                              to the expected (x,y,z) axis.

     Total time so far
     SCAT         :     90.75s CPU     94.14s WALL (   22508 calls)
     MOB          :     71.74s CPU     72.55s WALL (       9 calls)

     Progression iq (fine) =      25000/    117265
     Creation of a restart point

     ===================================================================
     Temp [K]  Fermi [eV]  Hole density [cm^-3]  Hole mobility [cm^2/Vs]
     ===================================================================

      100.000      0.0000       0.717510E+20       0.123043E+03  x-axis
                                                   0.815544E+03  y-axis
                                                   0.821223E+03  z-axis
                                                   0.586604E+03     avg
      150.000      0.0000       0.103129E+21       0.394484E+02  x-axis
                                                   0.259608E+03  y-axis
                                                   0.261471E+03  z-axis
                                                   0.186843E+03     avg
      200.000      8.5552       0.100000E+19       0.174022E+05  x-axis
                                                   0.175292E+05  y-axis
                                                   0.226224E+05  z-axis
                                                   0.191846E+05     avg
      250.000      8.5682       0.999995E+18       0.994056E+04  x-axis
                                                   0.100050E+05  y-axis
                                                   0.123915E+05  z-axis
                                                   0.107790E+05     avg
      300.000      8.5833       0.999995E+18       0.600563E+04  x-axis
                                                   0.604044E+04  y-axis
                                                   0.723222E+04  z-axis
                                                   0.642610E+04     avg
      350.000      8.6002       0.100000E+19       0.384993E+04  x-axis
                                                   0.386998E+04  y-axis
                                                   0.452439E+04  z-axis
                                                   0.408143E+04     avg
      400.000      8.6185       0.999992E+18       0.260478E+04  x-axis
                                                   0.261700E+04  y-axis
                                                   0.301423E+04  z-axis
                                                   0.274534E+04     avg
      450.000      8.6383       0.999999E+18       0.184627E+04  x-axis
                                                   0.185406E+04  y-axis
                                                   0.211837E+04  z-axis
                                                   0.193957E+04     avg
      500.000      8.6592       0.100000E+19       0.136148E+04  x-axis
                                                   0.136662E+04  y-axis
                                                   0.155657E+04  z-axis
                                                   0.142822E+04     avg

     ===================================================================
     Temp [K]  Fermi [eV]  Elec density [cm^-3]  Elec mobility [cm^2/Vs]
     ===================================================================

      100.000      9.4807       0.999998E+18       0.849691E+04  x-axis
                                                   0.227973E+05  y-axis
                                                   0.252991E+05  z-axis
                                                   0.188644E+05     avg
      150.000      9.4690       0.100000E+19       0.446993E+04  x-axis
                                                   0.128875E+05  y-axis
                                                   0.139968E+05  z-axis
                                                   0.104514E+05     avg
      200.000      9.4552       0.999995E+18       0.270567E+04  x-axis
                                                   0.825979E+04  y-axis
                                                   0.884083E+04  z-axis
                                                   0.660210E+04     avg
      250.000      9.4398       0.100000E+19       0.177710E+04  x-axis
                                                   0.568170E+04  y-axis
                                                   0.601738E+04  z-axis
                                                   0.449206E+04     avg
      300.000      9.4231       0.100000E+19       0.124473E+04  x-axis
                                                   0.411734E+04  y-axis
                                                   0.432582E+04  z-axis
                                                   0.322929E+04     avg
      350.000      9.4053       0.999991E+18       0.920057E+03  x-axis
                                                   0.311030E+04  y-axis
                                                   0.324738E+04  z-axis
                                                   0.242591E+04     avg
      400.000      9.3864       0.999990E+18       0.712044E+03  x-axis
                                                   0.242910E+04  y-axis
                                                   0.252342E+04  z-axis
                                                   0.188819E+04     avg
      450.000      9.3666       0.100000E+19       0.573329E+03  x-axis
                                                   0.194830E+04  y-axis
                                                   0.201558E+04  z-axis
                                                   0.151240E+04     avg
      500.000      9.3459       0.100000E+19       0.477628E+03  x-axis
                                                   0.159650E+04  y-axis
                                                   0.164591E+04  z-axis
                                                   0.124001E+04     avg

     Note: Mobility are sorted by ascending values and might not correspond
                                              to the expected (x,y,z) axis.

     Total time so far
     SCAT         :     99.32s CPU    103.39s WALL (   25009 calls)
     MOB          :     79.70s CPU     80.54s WALL (      10 calls)

     Progression iq (fine) =      27500/    117265
     Creation of a restart point

     ===================================================================
     Temp [K]  Fermi [eV]  Hole density [cm^-3]  Hole mobility [cm^2/Vs]
     ===================================================================

      100.000      0.0000       0.717510E+20       0.123043E+03  x-axis
                                                   0.815544E+03  y-axis
                                                   0.821223E+03  z-axis
                                                   0.586604E+03     avg
      150.000      0.0000       0.103129E+21       0.394484E+02  x-axis
                                                   0.259608E+03  y-axis
                                                   0.261471E+03  z-axis
                                                   0.186843E+03     avg
      200.000      8.5552       0.100000E+19       0.174022E+05  x-axis
                                                   0.175292E+05  y-axis
                                                   0.226224E+05  z-axis
                                                   0.191846E+05     avg
      250.000      8.5682       0.999995E+18       0.994056E+04  x-axis
                                                   0.100050E+05  y-axis
                                                   0.123915E+05  z-axis
                                                   0.107790E+05     avg
      300.000      8.5833       0.999995E+18       0.600563E+04  x-axis
                                                   0.604044E+04  y-axis
                                                   0.723222E+04  z-axis
                                                   0.642610E+04     avg
      350.000      8.6002       0.100000E+19       0.384993E+04  x-axis
                                                   0.386998E+04  y-axis
                                                   0.452439E+04  z-axis
                                                   0.408143E+04     avg
      400.000      8.6185       0.999992E+18       0.260478E+04  x-axis
                                                   0.261700E+04  y-axis
                                                   0.301423E+04  z-axis
                                                   0.274534E+04     avg
      450.000      8.6383       0.999999E+18       0.184627E+04  x-axis
                                                   0.185406E+04  y-axis
                                                   0.211837E+04  z-axis
                                                   0.193957E+04     avg
      500.000      8.6592       0.100000E+19       0.136148E+04  x-axis
                                                   0.136662E+04  y-axis
                                                   0.155657E+04  z-axis
                                                   0.142822E+04     avg

     ===================================================================
     Temp [K]  Fermi [eV]  Elec density [cm^-3]  Elec mobility [cm^2/Vs]
     ===================================================================

      100.000      9.4807       0.999998E+18       0.849255E+04  x-axis
                                                   0.227708E+05  y-axis
                                                   0.252707E+05  z-axis
                                                   0.188447E+05     avg
      150.000      9.4690       0.100000E+19       0.446253E+04  x-axis
                                                   0.128431E+05  y-axis
                                                   0.139498E+05  z-axis
                                                   0.104185E+05     avg
      200.000      9.4552       0.999995E+18       0.269555E+04  x-axis
                                                   0.820194E+04  y-axis
                                                   0.877990E+04  z-axis
                                                   0.655913E+04     avg
      250.000      9.4398       0.100000E+19       0.176611E+04  x-axis
                                                   0.561818E+04  y-axis
                                                   0.595084E+04  z-axis
                                                   0.444504E+04     avg
      300.000      9.4231       0.100000E+19       0.123414E+04  x-axis
                                                   0.405437E+04  y-axis
                                                   0.426020E+04  z-axis
                                                   0.318290E+04     avg
      350.000      9.4053       0.999991E+18       0.910369E+03  x-axis
                                                   0.305116E+04  y-axis
                                                   0.318604E+04  z-axis
                                                   0.238252E+04     avg
      400.000      9.3864       0.999990E+18       0.703310E+03  x-axis
                                                   0.237506E+04  y-axis
                                                   0.246759E+04  z-axis
                                                   0.184865E+04     avg
      450.000      9.3666       0.100000E+19       0.565415E+03  x-axis
                                                   0.189957E+04  y-axis
                                                   0.196541E+04  z-axis
                                                   0.147680E+04     avg
      500.000      9.3459       0.100000E+19       0.470341E+03  x-axis
                                                   0.155283E+04  y-axis
                                                   0.160106E+04  z-axis
                                                   0.120807E+04     avg

     Note: Mobility are sorted by ascending values and might not correspond
                                              to the expected (x,y,z) axis.

     Total time so far
     SCAT         :    108.08s CPU    112.36s WALL (   27510 calls)
     MOB          :     87.64s CPU     88.63s WALL (      11 calls)

     Progression iq (fine) =      30000/    117265
     Creation of a restart point

     ===================================================================
     Temp [K]  Fermi [eV]  Hole density [cm^-3]  Hole mobility [cm^2/Vs]
     ===================================================================

      100.000      0.0000       0.717510E+20       0.123043E+03  x-axis
                                                   0.815544E+03  y-axis
                                                   0.821223E+03  z-axis
                                                   0.586604E+03     avg
      150.000      0.0000       0.103129E+21       0.394484E+02  x-axis
                                                   0.259608E+03  y-axis
                                                   0.261471E+03  z-axis
                                                   0.186843E+03     avg
      200.000      8.5552       0.100000E+19       0.174022E+05  x-axis
                                                   0.175292E+05  y-axis
                                                   0.226224E+05  z-axis
                                                   0.191846E+05     avg
      250.000      8.5682       0.999995E+18       0.994056E+04  x-axis
[...]
                                                   0.907370E+04  y-axis
                                                   0.102754E+05  z-axis
                                                   0.945453E+04     avg
      300.000      8.5833       0.999995E+18       0.524777E+04  x-axis
                                                   0.527866E+04  y-axis
                                                   0.569018E+04  z-axis
                                                   0.540554E+04     avg
      350.000      8.6002       0.100000E+19       0.325878E+04  x-axis
                                                   0.327613E+04  y-axis
                                                   0.341256E+04  z-axis
                                                   0.331582E+04     avg
      400.000      8.6185       0.999992E+18       0.214482E+04  x-axis
                                                   0.215524E+04  y-axis
                                                   0.219411E+04  z-axis
                                                   0.216472E+04     avg
      450.000      8.6383       0.999999E+18       0.148340E+04  x-axis
                                                   0.148997E+04  y-axis
                                                   0.149465E+04  z-axis
                                                   0.148934E+04     avg
      500.000      8.6592       0.100000E+19       0.106750E+04  x-axis
                                                   0.106998E+04  y-axis
                                                   0.107423E+04  z-axis
                                                   0.107057E+04     avg

     ===================================================================
     Temp [K]  Fermi [eV]  Elec density [cm^-3]  Elec mobility [cm^2/Vs]
     ===================================================================

      100.000      9.4807       0.999998E+18       0.714684E+04  x-axis
                                                   0.219950E+05  y-axis
                                                   0.244609E+05  z-axis
                                                   0.178676E+05     avg
      150.000      9.4690       0.100000E+19       0.337717E+04  x-axis
                                                   0.120579E+05  y-axis
                                                   0.131419E+05  z-axis
                                                   0.952565E+04     avg
      200.000      9.4552       0.999995E+18       0.189820E+04  x-axis
                                                   0.752681E+04  y-axis
                                                   0.809178E+04  z-axis
                                                   0.583893E+04     avg
      250.000      9.4398       0.100000E+19       0.119148E+04  x-axis
                                                   0.506811E+04  y-axis
                                                   0.539358E+04  z-axis
                                                   0.388439E+04     avg
      300.000      9.4231       0.100000E+19       0.812148E+03  x-axis
                                                   0.360884E+04  y-axis
                                                   0.381064E+04  z-axis
                                                   0.274388E+04     avg
      350.000      9.4053       0.999991E+18       0.588506E+03  x-axis
                                                   0.268406E+04  y-axis
                                                   0.281663E+04  z-axis
                                                   0.202973E+04     avg
      400.000      9.3864       0.999990E+18       0.446219E+03  x-axis
                                                   0.206463E+04  y-axis
                                                   0.215581E+04  z-axis
                                                   0.155555E+04     avg
      450.000      9.3666       0.100000E+19       0.350095E+03  x-axis
                                                   0.162992E+04  y-axis
                                                   0.169496E+04  z-axis
                                                   0.122499E+04     avg
      500.000      9.3459       0.100000E+19       0.282041E+03  x-axis
                                                   0.131298E+04  y-axis
                                                   0.136074E+04  z-axis
                                                   0.985253E+03     avg

     Note: Mobility are sorted by ascending values and might not correspond
                                              to the expected (x,y,z) axis.

     Total time so far
     SCAT         :    442.64s CPU    463.13s WALL (  112544 calls)
     MOB          :    357.98s CPU    362.46s WALL (      45 calls)

     Progression iq (fine) =     115000/    117265
     Creation of a restart point

     ===================================================================
     Temp [K]  Fermi [eV]  Hole density [cm^-3]  Hole mobility [cm^2/Vs]
     ===================================================================

      100.000      0.0000       0.717510E+20       0.588452E+02  x-axis
                                                   0.428330E+03  y-axis
                                                   0.431304E+03  z-axis
                                                   0.306160E+03     avg
      150.000      0.0000       0.103129E+21       0.184464E+02  x-axis
                                                   0.133971E+03  y-axis
                                                   0.134923E+03  z-axis
                                                   0.957799E+02     avg
      200.000      8.5552       0.100000E+19       0.139674E+05  x-axis
                                                   0.140682E+05  y-axis
                                                   0.141823E+05  z-axis
                                                   0.140727E+05     avg
      250.000      8.5682       0.999995E+18       0.733108E+04  x-axis
                                                   0.750818E+04  y-axis
                                                   0.755636E+04  z-axis
                                                   0.746521E+04     avg
      300.000      8.5833       0.999995E+18       0.409304E+04  x-axis
                                                   0.432715E+04  y-axis
                                                   0.435223E+04  z-axis
                                                   0.425748E+04     avg
      350.000      8.6002       0.100000E+19       0.247156E+04  x-axis
                                                   0.267300E+04  y-axis
                                                   0.268710E+04  z-axis
                                                   0.261055E+04     avg
      400.000      8.6185       0.999992E+18       0.159837E+04  x-axis
                                                   0.175440E+04  y-axis
                                                   0.176287E+04  z-axis
                                                   0.170521E+04     avg
      450.000      8.6383       0.999999E+18       0.109455E+04  x-axis
                                                   0.121174E+04  y-axis
                                                   0.121710E+04  z-axis
                                                   0.117446E+04     avg
      500.000      8.6592       0.100000E+19       0.785896E+03  x-axis
                                                   0.873454E+03  y-axis
                                                   0.877002E+03  z-axis
                                                   0.845451E+03     avg

     ===================================================================
     Temp [K]  Fermi [eV]  Elec density [cm^-3]  Elec mobility [cm^2/Vs]
     ===================================================================

      100.000      9.4807       0.999998E+18       0.365901E+04  x-axis
                                                   0.170223E+05  y-axis
                                                   0.190846E+05  z-axis
                                                   0.132553E+05     avg
      150.000      9.4690       0.100000E+19       0.188847E+04  x-axis
                                                   0.918750E+04  y-axis
                                                   0.100839E+05  z-axis
                                                   0.705330E+04     avg
      200.000      9.4552       0.999995E+18       0.115829E+04  x-axis
                                                   0.575177E+04  y-axis
                                                   0.621961E+04  z-axis
                                                   0.437656E+04     avg
      250.000      9.4398       0.100000E+19       0.783010E+03  x-axis
                                                   0.391414E+04  y-axis
                                                   0.418544E+04  z-axis
                                                   0.296086E+04     avg
      300.000      9.4231       0.100000E+19       0.565169E+03  x-axis
                                                   0.282250E+04  y-axis
                                                   0.299207E+04  z-axis
                                                   0.212658E+04     avg
      350.000      9.4053       0.999991E+18       0.427727E+03  x-axis
                                                   0.212519E+04  y-axis
                                                   0.223745E+04  z-axis
                                                   0.159679E+04     avg
      400.000      9.3864       0.999990E+18       0.335400E+03  x-axis
                                                   0.165324E+04  y-axis
                                                   0.173097E+04  z-axis
                                                   0.123987E+04     avg
      450.000      9.3666       0.100000E+19       0.270289E+03  x-axis
                                                   0.131842E+04  y-axis
                                                   0.137418E+04  z-axis
                                                   0.987628E+03     avg
      500.000      9.3459       0.100000E+19       0.222576E+03  x-axis
                                                   0.107172E+04  y-axis
                                                   0.111286E+04  z-axis
                                                   0.802385E+03     avg

     Note: Mobility are sorted by ascending values and might not correspond
                                              to the expected (x,y,z) axis.

     Total time so far
     SCAT         :    453.81s CPU    475.32s WALL (  115045 calls)
     MOB          :    365.89s CPU    370.70s WALL (      46 calls)

     Temperature  100.000 K
     Average over degenerate eigenstates is performed
     Average over degenerate eigenstates in CB is performed

     Writing scattering rate to file

     Temperature  150.000 K
     Average over degenerate eigenstates is performed
     Average over degenerate eigenstates in CB is performed

     Writing scattering rate to file

     Temperature  200.000 K
     Average over degenerate eigenstates is performed
     Average over degenerate eigenstates in CB is performed

     Writing scattering rate to file

     Temperature  250.000 K
     Average over degenerate eigenstates is performed
     Average over degenerate eigenstates in CB is performed

     Writing scattering rate to file

     Temperature  300.000 K
     Average over degenerate eigenstates is performed
     Average over degenerate eigenstates in CB is performed

     Writing scattering rate to file

     Temperature  350.000 K
     Average over degenerate eigenstates is performed
     Average over degenerate eigenstates in CB is performed

     Writing scattering rate to file

     Temperature  400.000 K
     Average over degenerate eigenstates is performed
     Average over degenerate eigenstates in CB is performed

     Writing scattering rate to file

     Temperature  450.000 K
     Average over degenerate eigenstates is performed
     Average over degenerate eigenstates in CB is performed

     Writing scattering rate to file

     Temperature  500.000 K
     Average over degenerate eigenstates is performed
     Average over degenerate eigenstates in CB is performed

     Writing scattering rate to file

     Creation of the final restart point

     ===================================================================
     Temp [K]  Fermi [eV]  Hole density [cm^-3]  Hole mobility [cm^2/Vs]
     ===================================================================

      100.000      0.0000       0.717510E+20       0.443552E+02  x-axis
                                                   0.327924E+03  y-axis
                                                   0.330114E+03  z-axis
                                                   0.234131E+03     avg
      150.000      0.0000       0.103129E+21       0.139563E+02  x-axis
                                                   0.103033E+03  y-axis
                                                   0.103739E+03  z-axis
                                                   0.735760E+02     avg
      200.000      8.5552       0.100000E+19       0.940706E+04  x-axis
                                                   0.103840E+05  y-axis
                                                   0.104583E+05  z-axis
                                                   0.100831E+05     avg
      250.000      8.5682       0.999995E+18       0.516209E+04  x-axis
                                                   0.575288E+04  y-axis
                                                   0.578958E+04  z-axis
                                                   0.556818E+04     avg
      300.000      8.5833       0.999995E+18       0.300987E+04  x-axis
                                                   0.339351E+04  y-axis
                                                   0.341295E+04  z-axis
                                                   0.327211E+04     avg
      350.000      8.6002       0.100000E+19       0.187454E+04  x-axis
                                                   0.213287E+04  y-axis
                                                   0.214394E+04  z-axis
                                                   0.205045E+04     avg
      400.000      8.6185       0.999992E+18       0.124022E+04  x-axis
                                                   0.141857E+04  y-axis
                                                   0.142528E+04  z-axis
                                                   0.136136E+04     avg
      450.000      8.6383       0.999999E+18       0.864363E+03  x-axis
                                                   0.990192E+03  y-axis
                                                   0.994469E+03  z-axis
                                                   0.949675E+03     avg
      500.000      8.6592       0.100000E+19       0.629465E+03  x-axis
                                                   0.720012E+03  y-axis
                                                   0.722856E+03  z-axis
                                                   0.690778E+03     avg

     ===================================================================
     Temp [K]  Fermi [eV]  Elec density [cm^-3]  Elec mobility [cm^2/Vs]
     ===================================================================

      100.000      9.4807       0.999998E+18       0.286409E+04  x-axis
                                                   0.130886E+05  y-axis
                                                   0.147005E+05  z-axis
                                                   0.102177E+05     avg
      150.000      9.4690       0.100000E+19       0.154413E+04  x-axis
                                                   0.728192E+04  y-axis
                                                   0.799661E+04  z-axis
                                                   0.560756E+04     avg
      200.000      9.4552       0.999995E+18       0.976308E+03  x-axis
                                                   0.466572E+04  y-axis
                                                   0.504490E+04  z-axis
                                                   0.356231E+04     avg
      250.000      9.4398       0.100000E+19       0.674566E+03  x-axis
                                                   0.323452E+04  y-axis
                                                   0.345753E+04  z-axis
                                                   0.245554E+04     avg
      300.000      9.4231       0.100000E+19       0.494673E+03  x-axis
                                                   0.236765E+04  y-axis
                                                   0.250871E+04  z-axis
                                                   0.179034E+04     avg
      350.000      9.4053       0.999991E+18       0.378807E+03  x-axis
                                                   0.180460E+04  y-axis
                                                   0.189891E+04  z-axis
                                                   0.136077E+04     avg
      400.000      9.3864       0.999990E+18       0.299739E+03  x-axis
                                                   0.141804E+04  y-axis
                                                   0.148388E+04  z-axis
                                                   0.106722E+04     avg
      450.000      9.3666       0.100000E+19       0.243295E+03  x-axis
                                                   0.114042E+04  y-axis
                                                   0.118797E+04  z-axis
                                                   0.857230E+03     avg
      500.000      9.3459       0.100000E+19       0.201534E+03  x-axis
                                                   0.933710E+03  y-axis
                                                   0.968993E+03  z-axis
                                                   0.701412E+03     avg

     Note: Mobility are sorted by ascending values and might not correspond
                                              to the expected (x,y,z) axis.

     Total time so far
     SCAT         :    473.70s CPU    506.86s WALL (  117311 calls)
     MOB          :    373.80s CPU    378.68s WALL (      47 calls)

     ===================================================================
     Memory usage:  VmHWM =       172Mb
                   VmPeak =      2019Mb
     ===================================================================

 
     Unfolding on the coarse grid
     elphon_wrap  :      0.02s CPU      0.03s WALL (       1 calls)
 
     INITIALIZATION: 
 
 
 
     Electron-Phonon interpolation
     ephwann      :  37019.18s CPU  37507.04s WALL (       1 calls)
     ep-interp    :  36780.75s CPU  37264.80s WALL (  117265 calls)
 
     DynW2B       :    167.26s CPU    169.34s WALL (  117265 calls)
     HamW2B       :   2293.46s CPU   2333.71s WALL ( 4221594 calls)
     ephW2Bp      :  20524.47s CPU  20835.09s WALL (  117265 calls)
 
 
     Total program execution
     EPW          :     10h16m CPU     10h25m WALL

                                                                                          
 Please consider citing:                                                                  
 S. Ponce, E. R. Margine, C. Verdi and F. Giustino, Comput. Phys. Commun. 209, 116 (2016) 
                                                                                          
 In addition, if you used anisotropic Eliashberg superconductivity please cite:           
              E. R. Margine and F. Giustino, Phys. Rev. B 87, 024505 (2013)               
              if you used transport properties (scattering rates, mobility) please cite:  
              S. Ponce, E. R. Margine and F. Giustino, Phys. Rev. B 97, 121201 (2018)     
