
     Program PWSCF v.6.6 starts on  2Mar2021 at 10: 1: 4 

     This program is part of the open-source Quantum ESPRESSO suite
     for quantum simulation of materials; please cite
         "P. Giannozzi et al., J. Phys.:Condens. Matter 21 395502 (2009);
         "P. Giannozzi et al., J. Phys.:Condens. Matter 29 465901 (2017);
          URL http://www.quantum-espresso.org", 
     in publications or presentations arising from this work. More details at
     http://www.quantum-espresso.org/quote

     Parallel version (MPI & OpenMP), running on      68 processor cores
     Number of MPI processes:                68
     Threads/MPI process:                     1

     MPI processes distributed on     1 nodes
     K-points division:     npool     =      68
     Waiting for input...
     Reading input from standard input
Warning: card &IONS ignored
Warning: card / ignored
Warning: card &CELL ignored
Warning: card / ignored

     Current dimensions of program PWSCF are:
     Max number of different atomic species (ntypx) = 10
     Max number of k-points (npk) =  40000
     Max angular momentum in pseudopotentials (lmaxx) =  3

     Atomic positions and unit cell read from directory:
     ./Si.save/
     Atomic positions from file used, from input discarded
 

     Subspace diagonalization in iterative solution of the eigenvalue problem:
     a serial algorithm will be used

     Message from routine setup:
     using ibrav=0 with symmetry is DISCOURAGED, use correct ibrav instead
 
     G-vector sticks info
     --------------------
     sticks:   dense  smooth     PW     G-vecs:    dense   smooth      PW
     Sum         571     571    199                 8873     8873    1807
 


     bravais-lattice index     =            0
     lattice parameter (alat)  =      10.1645  a.u.
     unit-cell volume          =     262.5448 (a.u.)^3
     number of atoms/cell      =            2
     number of atomic types    =            1
     number of electrons       =         8.00
     number of Kohn-Sham states=           34
     kinetic-energy cutoff     =      40.0000  Ry
     charge density cutoff     =     160.0000  Ry
     Exchange-correlation= SLA  PZ   NOGX NOGC
                           (   1   1   0   0   0   0   0)

     celldm(1)=  10.164542  celldm(2)=   0.000000  celldm(3)=   0.000000
     celldm(4)=   0.000000  celldm(5)=   0.000000  celldm(6)=   0.000000

     crystal axes: (cart. coord. in units of alat)
               a(1) = (  -0.500000   0.000000   0.500000 )  
               a(2) = (   0.000000   0.500000   0.500000 )  
               a(3) = (  -0.500000   0.500000   0.000000 )  

     reciprocal axes: (cart. coord. in units 2 pi/alat)
               b(1) = ( -1.000000 -1.000000  1.000000 )  
               b(2) = (  1.000000  1.000000  1.000000 )  
               b(3) = ( -1.000000  1.000000 -1.000000 )  


     PseudoPot. # 1 for Si read from file:
     ./si.cpi.UPF
     MD5 check sum: b49e38a2651755062821566f72dc82b2
     Pseudo is Norm-conserving, Zval =  4.0
     Generated by new atomic code, or converted to UPF format
     Using radial grid of  495 points,  2 beta functions with: 
                l(1) =   1
                l(2) =   2

     atomic species   valence    mass     pseudopotential
        Si             4.00    28.08600     Si( 1.00)

     48 Sym. Ops., with inversion, found (36 have fractional translation)


                                    s                        frac. trans.

      isym =  1     identity                                     

 cryst.   s( 1) = (     1          0          0      )
                  (     0          1          0      )
                  (     0          0          1      )

 cart.    s( 1) = (  1.0000000  0.0000000  0.0000000 )
                  (  0.0000000  1.0000000  0.0000000 )
                  (  0.0000000  0.0000000  1.0000000 )


      isym =  2     180 deg rotation - cart. axis [0,0,1]        

 cryst.   s( 2) = (     0          1         -1      )    f =(  0.0000000 )
                  (     1          0         -1      )       (  0.0000000 )
                  (     0          0         -1      )       ( -0.5000000 )

 cart.    s( 2) = ( -1.0000000  0.0000000  0.0000000 )    f =(  0.2500000 )
                  (  0.0000000 -1.0000000  0.0000000 )       ( -0.2500000 )
                  (  0.0000000  0.0000000  1.0000000 )       (  0.0000000 )


      isym =  3     180 deg rotation - cart. axis [0,1,0]        

 cryst.   s( 3) = (    -1          0          0      )    f =( -0.5000000 )
                  (    -1          0          1      )       (  0.0000000 )
                  (    -1          1          0      )       (  0.0000000 )

 cart.    s( 3) = ( -1.0000000  0.0000000  0.0000000 )    f =(  0.2500000 )
                  (  0.0000000  1.0000000  0.0000000 )       (  0.0000000 )
                  (  0.0000000  0.0000000 -1.0000000 )       ( -0.2500000 )


      isym =  4     180 deg rotation - cart. axis [1,0,0]        

 cryst.   s( 4) = (     0         -1          1      )    f =(  0.0000000 )
                  (     0         -1          0      )       ( -0.5000000 )
                  (     1         -1          0      )       (  0.0000000 )

 cart.    s( 4) = (  1.0000000  0.0000000  0.0000000 )    f =(  0.0000000 )
                  (  0.0000000 -1.0000000  0.0000000 )       ( -0.2500000 )
                  (  0.0000000  0.0000000 -1.0000000 )       ( -0.2500000 )


      isym =  5     180 deg rotation - cart. axis [1,1,0]        

 cryst.   s( 5) = (     0         -1          0      )
                  (    -1          0          0      )
                  (     0          0         -1      )

 cart.    s( 5) = (  0.0000000  1.0000000  0.0000000 )
                  (  1.0000000  0.0000000  0.0000000 )
                  (  0.0000000  0.0000000 -1.0000000 )


      isym =  6     180 deg rotation - cart. axis [1,-1,0]       

 cryst.   s( 6) = (    -1          0          1      )    f =(  0.0000000 )
                  (     0         -1          1      )       (  0.0000000 )
                  (     0          0          1      )       ( -0.5000000 )

 cart.    s( 6) = (  0.0000000 -1.0000000  0.0000000 )    f =(  0.2500000 )
                  ( -1.0000000  0.0000000  0.0000000 )       ( -0.2500000 )
                  (  0.0000000  0.0000000 -1.0000000 )       (  0.0000000 )


      isym =  7      90 deg rotation - cart. axis [0,0,-1]       

 cryst.   s( 7) = (     0          1          0      )    f =(  0.0000000 )
                  (     0          1         -1      )       ( -0.5000000 )
                  (    -1          1          0      )       (  0.0000000 )

 cart.    s( 7) = (  0.0000000  1.0000000  0.0000000 )    f =(  0.0000000 )
                  ( -1.0000000  0.0000000  0.0000000 )       ( -0.2500000 )
                  (  0.0000000  0.0000000  1.0000000 )       ( -0.2500000 )


      isym =  8      90 deg rotation - cart. axis [0,0,1]        

 cryst.   s( 8) = (     1          0         -1      )    f =( -0.5000000 )
                  (     1          0          0      )       (  0.0000000 )
                  (     1         -1          0      )       (  0.0000000 )

 cart.    s( 8) = (  0.0000000 -1.0000000  0.0000000 )    f =(  0.2500000 )
                  (  1.0000000  0.0000000  0.0000000 )       (  0.0000000 )
                  (  0.0000000  0.0000000  1.0000000 )       ( -0.2500000 )


      isym =  9     180 deg rotation - cart. axis [1,0,1]        

 cryst.   s( 9) = (    -1          0          0      )
                  (     0          0         -1      )
                  (     0         -1          0      )

 cart.    s( 9) = (  0.0000000  0.0000000  1.0000000 )
                  (  0.0000000 -1.0000000  0.0000000 )
                  (  1.0000000  0.0000000  0.0000000 )


      isym = 10     180 deg rotation - cart. axis [-1,0,1]       

 cryst.   s(10) = (     1          0          0      )    f =( -0.5000000 )
                  (     1         -1          0      )       (  0.0000000 )
                  (     1          0         -1      )       (  0.0000000 )

 cart.    s(10) = (  0.0000000  0.0000000 -1.0000000 )    f =(  0.2500000 )
                  (  0.0000000 -1.0000000  0.0000000 )       (  0.0000000 )
                  ( -1.0000000  0.0000000  0.0000000 )       ( -0.2500000 )


      isym = 11      90 deg rotation - cart. axis [0,1,0]        

 cryst.   s(11) = (     0          1         -1      )    f =(  0.0000000 )
                  (    -1          1          0      )       ( -0.5000000 )
                  (     0          1          0      )       (  0.0000000 )

 cart.    s(11) = (  0.0000000  0.0000000  1.0000000 )    f =(  0.0000000 )
                  (  0.0000000  1.0000000  0.0000000 )       ( -0.2500000 )
                  ( -1.0000000  0.0000000  0.0000000 )       ( -0.2500000 )


      isym = 12      90 deg rotation - cart. axis [0,-1,0]       

 cryst.   s(12) = (     0         -1          1      )    f =(  0.0000000 )
                  (     0          0          1      )       (  0.0000000 )
                  (    -1          0          1      )       ( -0.5000000 )

 cart.    s(12) = (  0.0000000  0.0000000 -1.0000000 )    f =(  0.2500000 )
                  (  0.0000000  1.0000000  0.0000000 )       ( -0.2500000 )
                  (  1.0000000  0.0000000  0.0000000 )       (  0.0000000 )


      isym = 13     180 deg rotation - cart. axis [0,1,1]        

 cryst.   s(13) = (    -1          1          0      )    f =(  0.0000000 )
                  (     0          1          0      )       ( -0.5000000 )
                  (     0          1         -1      )       (  0.0000000 )

 cart.    s(13) = ( -1.0000000  0.0000000  0.0000000 )    f =(  0.0000000 )
                  (  0.0000000  0.0000000  1.0000000 )       ( -0.2500000 )
                  (  0.0000000  1.0000000  0.0000000 )       ( -0.2500000 )


      isym = 14     180 deg rotation - cart. axis [0,1,-1]       

 cryst.   s(14) = (     0          0         -1      )
                  (     0         -1          0      )
                  (    -1          0          0      )

 cart.    s(14) = ( -1.0000000  0.0000000  0.0000000 )
                  (  0.0000000  0.0000000 -1.0000000 )
                  (  0.0000000 -1.0000000  0.0000000 )


      isym = 15      90 deg rotation - cart. axis [-1,0,0]       

 cryst.   s(15) = (     0          0          1      )    f =(  0.0000000 )
                  (    -1          0          1      )       (  0.0000000 )
                  (     0         -1          1      )       ( -0.5000000 )

 cart.    s(15) = (  1.0000000  0.0000000  0.0000000 )    f =(  0.2500000 )
                  (  0.0000000  0.0000000  1.0000000 )       ( -0.2500000 )
                  (  0.0000000 -1.0000000  0.0000000 )       (  0.0000000 )


      isym = 16      90 deg rotation - cart. axis [1,0,0]        

 cryst.   s(16) = (     1         -1          0      )    f =( -0.5000000 )
                  (     1          0         -1      )       (  0.0000000 )
                  (     1          0          0      )       (  0.0000000 )

 cart.    s(16) = (  1.0000000  0.0000000  0.0000000 )    f =(  0.2500000 )
                  (  0.0000000  0.0000000 -1.0000000 )       (  0.0000000 )
                  (  0.0000000  1.0000000  0.0000000 )       ( -0.2500000 )


      isym = 17     120 deg rotation - cart. axis [-1,-1,-1]     

 cryst.   s(17) = (    -1          0          1      )    f =( -0.5000000 )
                  (    -1          1          0      )       (  0.0000000 )
                  (    -1          0          0      )       (  0.0000000 )

 cart.    s(17) = (  0.0000000  1.0000000  0.0000000 )    f =(  0.2500000 )
                  (  0.0000000  0.0000000  1.0000000 )       (  0.0000000 )
                  (  1.0000000  0.0000000  0.0000000 )       ( -0.2500000 )


      isym = 18     120 deg rotation - cart. axis [-1,1,1]       

 cryst.   s(18) = (     0          1          0      )
                  (     0          0          1      )
                  (     1          0          0      )

 cart.    s(18) = (  0.0000000 -1.0000000  0.0000000 )
                  (  0.0000000  0.0000000  1.0000000 )
                  ( -1.0000000  0.0000000  0.0000000 )


      isym = 19     120 deg rotation - cart. axis [1,1,-1]       

 cryst.   s(19) = (     1          0         -1      )    f =(  0.0000000 )
                  (     0          0         -1      )       (  0.0000000 )
                  (     0          1         -1      )       ( -0.5000000 )

 cart.    s(19) = (  0.0000000  1.0000000  0.0000000 )    f =(  0.2500000 )
                  (  0.0000000  0.0000000 -1.0000000 )       ( -0.2500000 )
                  ( -1.0000000  0.0000000  0.0000000 )       (  0.0000000 )


      isym = 20     120 deg rotation - cart. axis [1,-1,1]       

 cryst.   s(20) = (     0         -1          0      )    f =(  0.0000000 )
                  (     1         -1          0      )       ( -0.5000000 )
                  (     0         -1          1      )       (  0.0000000 )

 cart.    s(20) = (  0.0000000 -1.0000000  0.0000000 )    f =(  0.0000000 )
                  (  0.0000000  0.0000000 -1.0000000 )       ( -0.2500000 )
                  (  1.0000000  0.0000000  0.0000000 )       ( -0.2500000 )


      isym = 21     120 deg rotation - cart. axis [1,1,1]        

 cryst.   s(21) = (     0          0         -1      )    f =(  0.0000000 )
                  (     0          1         -1      )       (  0.0000000 )
                  (     1          0         -1      )       ( -0.5000000 )

 cart.    s(21) = (  0.0000000  0.0000000  1.0000000 )    f =(  0.2500000 )
                  (  1.0000000  0.0000000  0.0000000 )       ( -0.2500000 )
                  (  0.0000000  1.0000000  0.0000000 )       (  0.0000000 )


      isym = 22     120 deg rotation - cart. axis [-1,1,-1]      

 cryst.   s(22) = (    -1          1          0      )    f =( -0.5000000 )
                  (    -1          0          0      )       (  0.0000000 )
                  (    -1          0          1      )       (  0.0000000 )

 cart.    s(22) = (  0.0000000  0.0000000  1.0000000 )    f =(  0.2500000 )
                  ( -1.0000000  0.0000000  0.0000000 )       (  0.0000000 )
                  (  0.0000000 -1.0000000  0.0000000 )       ( -0.2500000 )


      isym = 23     120 deg rotation - cart. axis [1,-1,-1]      

 cryst.   s(23) = (     0          0          1      )
                  (     1          0          0      )
                  (     0          1          0      )

 cart.    s(23) = (  0.0000000  0.0000000 -1.0000000 )
                  ( -1.0000000  0.0000000  0.0000000 )
                  (  0.0000000  1.0000000  0.0000000 )


      isym = 24     120 deg rotation - cart. axis [-1,-1,1]      

 cryst.   s(24) = (     1         -1          0      )    f =(  0.0000000 )
                  (     0         -1          1      )       ( -0.5000000 )
                  (     0         -1          0      )       (  0.0000000 )

 cart.    s(24) = (  0.0000000  0.0000000 -1.0000000 )    f =(  0.0000000 )
                  (  1.0000000  0.0000000  0.0000000 )       ( -0.2500000 )
                  (  0.0000000 -1.0000000  0.0000000 )       ( -0.2500000 )


      isym = 25     inversion                                    

 cryst.   s(25) = (    -1          0          0      )
                  (     0         -1          0      )
                  (     0          0         -1      )

 cart.    s(25) = ( -1.0000000  0.0000000  0.0000000 )
                  (  0.0000000 -1.0000000  0.0000000 )
                  (  0.0000000  0.0000000 -1.0000000 )


      isym = 26     inv. 180 deg rotation - cart. axis [0,0,1]   

 cryst.   s(26) = (     0         -1          1      )    f =(  0.0000000 )
                  (    -1          0          1      )       (  0.0000000 )
                  (     0          0          1      )       ( -0.5000000 )

 cart.    s(26) = (  1.0000000  0.0000000  0.0000000 )    f =(  0.2500000 )
                  (  0.0000000  1.0000000  0.0000000 )       ( -0.2500000 )
                  (  0.0000000  0.0000000 -1.0000000 )       (  0.0000000 )


      isym = 27     inv. 180 deg rotation - cart. axis [0,1,0]   

 cryst.   s(27) = (     1          0          0      )    f =( -0.5000000 )
                  (     1          0         -1      )       (  0.0000000 )
                  (     1         -1          0      )       (  0.0000000 )

 cart.    s(27) = (  1.0000000  0.0000000  0.0000000 )    f =(  0.2500000 )
                  (  0.0000000 -1.0000000  0.0000000 )       (  0.0000000 )
                  (  0.0000000  0.0000000  1.0000000 )       ( -0.2500000 )


      isym = 28     inv. 180 deg rotation - cart. axis [1,0,0]   

 cryst.   s(28) = (     0          1         -1      )    f =(  0.0000000 )
                  (     0          1          0      )       ( -0.5000000 )
                  (    -1          1          0      )       (  0.0000000 )

 cart.    s(28) = ( -1.0000000  0.0000000  0.0000000 )    f =(  0.0000000 )
                  (  0.0000000  1.0000000  0.0000000 )       ( -0.2500000 )
                  (  0.0000000  0.0000000  1.0000000 )       ( -0.2500000 )


      isym = 29     inv. 180 deg rotation - cart. axis [1,1,0]   

 cryst.   s(29) = (     0          1          0      )
                  (     1          0          0      )
                  (     0          0          1      )

 cart.    s(29) = (  0.0000000 -1.0000000  0.0000000 )
                  ( -1.0000000  0.0000000  0.0000000 )
                  (  0.0000000  0.0000000  1.0000000 )


      isym = 30     inv. 180 deg rotation - cart. axis [1,-1,0]  

 cryst.   s(30) = (     1          0         -1      )    f =(  0.0000000 )
                  (     0          1         -1      )       (  0.0000000 )
                  (     0          0         -1      )       ( -0.5000000 )

 cart.    s(30) = (  0.0000000  1.0000000  0.0000000 )    f =(  0.2500000 )
                  (  1.0000000  0.0000000  0.0000000 )       ( -0.2500000 )
                  (  0.0000000  0.0000000  1.0000000 )       (  0.0000000 )


      isym = 31     inv.  90 deg rotation - cart. axis [0,0,-1]  

 cryst.   s(31) = (     0         -1          0      )    f =(  0.0000000 )
                  (     0         -1          1      )       ( -0.5000000 )
                  (     1         -1          0      )       (  0.0000000 )

 cart.    s(31) = (  0.0000000 -1.0000000  0.0000000 )    f =(  0.0000000 )
                  (  1.0000000  0.0000000  0.0000000 )       ( -0.2500000 )
                  (  0.0000000  0.0000000 -1.0000000 )       ( -0.2500000 )


      isym = 32     inv.  90 deg rotation - cart. axis [0,0,1]   

 cryst.   s(32) = (    -1          0          1      )    f =( -0.5000000 )
                  (    -1          0          0      )       (  0.0000000 )
                  (    -1          1          0      )       (  0.0000000 )

 cart.    s(32) = (  0.0000000  1.0000000  0.0000000 )    f =(  0.2500000 )
                  ( -1.0000000  0.0000000  0.0000000 )       (  0.0000000 )
                  (  0.0000000  0.0000000 -1.0000000 )       ( -0.2500000 )


      isym = 33     inv. 180 deg rotation - cart. axis [1,0,1]   

 cryst.   s(33) = (     1          0          0      )
                  (     0          0          1      )
                  (     0          1          0      )

 cart.    s(33) = (  0.0000000  0.0000000 -1.0000000 )
                  (  0.0000000  1.0000000  0.0000000 )
                  ( -1.0000000  0.0000000  0.0000000 )


      isym = 34     inv. 180 deg rotation - cart. axis [-1,0,1]  

 cryst.   s(34) = (    -1          0          0      )    f =( -0.5000000 )
                  (    -1          1          0      )       (  0.0000000 )
                  (    -1          0          1      )       (  0.0000000 )

 cart.    s(34) = (  0.0000000  0.0000000  1.0000000 )    f =(  0.2500000 )
                  (  0.0000000  1.0000000  0.0000000 )       (  0.0000000 )
                  (  1.0000000  0.0000000  0.0000000 )       ( -0.2500000 )


      isym = 35     inv.  90 deg rotation - cart. axis [0,1,0]   

 cryst.   s(35) = (     0         -1          1      )    f =(  0.0000000 )
                  (     1         -1          0      )       ( -0.5000000 )
                  (     0         -1          0      )       (  0.0000000 )

 cart.    s(35) = (  0.0000000  0.0000000 -1.0000000 )    f =(  0.0000000 )
                  (  0.0000000 -1.0000000  0.0000000 )       ( -0.2500000 )
                  (  1.0000000  0.0000000  0.0000000 )       ( -0.2500000 )


      isym = 36     inv.  90 deg rotation - cart. axis [0,-1,0]  

 cryst.   s(36) = (     0          1         -1      )    f =(  0.0000000 )
                  (     0          0         -1      )       (  0.0000000 )
                  (     1          0         -1      )       ( -0.5000000 )

 cart.    s(36) = (  0.0000000  0.0000000  1.0000000 )    f =(  0.2500000 )
                  (  0.0000000 -1.0000000  0.0000000 )       ( -0.2500000 )
                  ( -1.0000000  0.0000000  0.0000000 )       (  0.0000000 )


      isym = 37     inv. 180 deg rotation - cart. axis [0,1,1]   

 cryst.   s(37) = (     1         -1          0      )    f =(  0.0000000 )
                  (     0         -1          0      )       ( -0.5000000 )
                  (     0         -1          1      )       (  0.0000000 )

 cart.    s(37) = (  1.0000000  0.0000000  0.0000000 )    f =(  0.0000000 )
                  (  0.0000000  0.0000000 -1.0000000 )       ( -0.2500000 )
                  (  0.0000000 -1.0000000  0.0000000 )       ( -0.2500000 )


      isym = 38     inv. 180 deg rotation - cart. axis [0,1,-1]  

 cryst.   s(38) = (     0          0          1      )
                  (     0          1          0      )
                  (     1          0          0      )

 cart.    s(38) = (  1.0000000  0.0000000  0.0000000 )
                  (  0.0000000  0.0000000  1.0000000 )
                  (  0.0000000  1.0000000  0.0000000 )


      isym = 39     inv.  90 deg rotation - cart. axis [-1,0,0]  

 cryst.   s(39) = (     0          0         -1      )    f =(  0.0000000 )
                  (     1          0         -1      )       (  0.0000000 )
                  (     0          1         -1      )       ( -0.5000000 )

 cart.    s(39) = ( -1.0000000  0.0000000  0.0000000 )    f =(  0.2500000 )
                  (  0.0000000  0.0000000 -1.0000000 )       ( -0.2500000 )
                  (  0.0000000  1.0000000  0.0000000 )       (  0.0000000 )


      isym = 40     inv.  90 deg rotation - cart. axis [1,0,0]   

 cryst.   s(40) = (    -1          1          0      )    f =( -0.5000000 )
                  (    -1          0          1      )       (  0.0000000 )
                  (    -1          0          0      )       (  0.0000000 )

 cart.    s(40) = ( -1.0000000  0.0000000  0.0000000 )    f =(  0.2500000 )
                  (  0.0000000  0.0000000  1.0000000 )       (  0.0000000 )
                  (  0.0000000 -1.0000000  0.0000000 )       ( -0.2500000 )


      isym = 41     inv. 120 deg rotation - cart. axis [-1,-1,-1]

 cryst.   s(41) = (     1          0         -1      )    f =( -0.5000000 )
                  (     1         -1          0      )       (  0.0000000 )
                  (     1          0          0      )       (  0.0000000 )

 cart.    s(41) = (  0.0000000 -1.0000000  0.0000000 )    f =(  0.2500000 )
                  (  0.0000000  0.0000000 -1.0000000 )       (  0.0000000 )
                  ( -1.0000000  0.0000000  0.0000000 )       ( -0.2500000 )


      isym = 42     inv. 120 deg rotation - cart. axis [-1,1,1]  

 cryst.   s(42) = (     0         -1          0      )
                  (     0          0         -1      )
                  (    -1          0          0      )

 cart.    s(42) = (  0.0000000  1.0000000  0.0000000 )
                  (  0.0000000  0.0000000 -1.0000000 )
                  (  1.0000000  0.0000000  0.0000000 )


      isym = 43     inv. 120 deg rotation - cart. axis [1,1,-1]  

 cryst.   s(43) = (    -1          0          1      )    f =(  0.0000000 )
                  (     0          0          1      )       (  0.0000000 )
                  (     0         -1          1      )       ( -0.5000000 )

 cart.    s(43) = (  0.0000000 -1.0000000  0.0000000 )    f =(  0.2500000 )
                  (  0.0000000  0.0000000  1.0000000 )       ( -0.2500000 )
                  (  1.0000000  0.0000000  0.0000000 )       (  0.0000000 )


      isym = 44     inv. 120 deg rotation - cart. axis [1,-1,1]  

 cryst.   s(44) = (     0          1          0      )    f =(  0.0000000 )
                  (    -1          1          0      )       ( -0.5000000 )
                  (     0          1         -1      )       (  0.0000000 )

 cart.    s(44) = (  0.0000000  1.0000000  0.0000000 )    f =(  0.0000000 )
                  (  0.0000000  0.0000000  1.0000000 )       ( -0.2500000 )
                  ( -1.0000000  0.0000000  0.0000000 )       ( -0.2500000 )


      isym = 45     inv. 120 deg rotation - cart. axis [1,1,1]   

 cryst.   s(45) = (     0          0          1      )    f =(  0.0000000 )
                  (     0         -1          1      )       (  0.0000000 )
                  (    -1          0          1      )       ( -0.5000000 )

 cart.    s(45) = (  0.0000000  0.0000000 -1.0000000 )    f =(  0.2500000 )
                  ( -1.0000000  0.0000000  0.0000000 )       ( -0.2500000 )
                  (  0.0000000 -1.0000000  0.0000000 )       (  0.0000000 )


      isym = 46     inv. 120 deg rotation - cart. axis [-1,1,-1] 

 cryst.   s(46) = (     1         -1          0      )    f =( -0.5000000 )
                  (     1          0          0      )       (  0.0000000 )
                  (     1          0         -1      )       (  0.0000000 )

 cart.    s(46) = (  0.0000000  0.0000000 -1.0000000 )    f =(  0.2500000 )
                  (  1.0000000  0.0000000  0.0000000 )       (  0.0000000 )
                  (  0.0000000  1.0000000  0.0000000 )       ( -0.2500000 )


      isym = 47     inv. 120 deg rotation - cart. axis [1,-1,-1] 

 cryst.   s(47) = (     0          0         -1      )
                  (    -1          0          0      )
                  (     0         -1          0      )

 cart.    s(47) = (  0.0000000  0.0000000  1.0000000 )
                  (  1.0000000  0.0000000  0.0000000 )
                  (  0.0000000 -1.0000000  0.0000000 )


      isym = 48     inv. 120 deg rotation - cart. axis [-1,-1,1] 

 cryst.   s(48) = (    -1          1          0      )    f =(  0.0000000 )
                  (     0          1         -1      )       ( -0.5000000 )
                  (     0          1          0      )       (  0.0000000 )

 cart.    s(48) = (  0.0000000  0.0000000  1.0000000 )    f =(  0.0000000 )
                  ( -1.0000000  0.0000000  0.0000000 )       ( -0.2500000 )
                  (  0.0000000  1.0000000  0.0000000 )       ( -0.2500000 )


   Cartesian axes

     site n.     atom                  positions (alat units)
         1           Si  tau(   1) = (   0.1250000  -0.1250000  -0.1250000  )
         2           Si  tau(   2) = (  -0.1250000   0.1250000   0.1250000  )

   Crystallographic axes

     site n.     atom                  positions (cryst. coord.)
         1           Si  tau(   1) = ( -0.1250000 -0.1250000 -0.1250000  )
         2           Si  tau(   2) = (  0.1250000  0.1250000  0.1250000  )

     number of k points=   512
                       cart. coord. in units 2pi/alat
        k(    1) = (   0.0000000   0.0000000   0.0000000), wk =   0.0039062
        k(    2) = (  -0.1250000   0.1250000  -0.1250000), wk =   0.0039062
        k(    3) = (  -0.2500000   0.2500000  -0.2500000), wk =   0.0039062
        k(    4) = (  -0.3750000   0.3750000  -0.3750000), wk =   0.0039062
        k(    5) = (  -0.5000000   0.5000000  -0.5000000), wk =   0.0039062
        k(    6) = (  -0.6250000   0.6250000  -0.6250000), wk =   0.0039062
        k(    7) = (  -0.7500000   0.7500000  -0.7500000), wk =   0.0039062
        k(    8) = (  -0.8750000   0.8750000  -0.8750000), wk =   0.0039062
        k(    9) = (   0.1250000   0.1250000   0.1250000), wk =   0.0039062
        k(   10) = (   0.0000000   0.2500000   0.0000000), wk =   0.0039062
        k(   11) = (  -0.1250000   0.3750000  -0.1250000), wk =   0.0039062
        k(   12) = (  -0.2500000   0.5000000  -0.2500000), wk =   0.0039062
        k(   13) = (  -0.3750000   0.6250000  -0.3750000), wk =   0.0039062
        k(   14) = (  -0.5000000   0.7500000  -0.5000000), wk =   0.0039062
        k(   15) = (  -0.6250000   0.8750000  -0.6250000), wk =   0.0039062
        k(   16) = (  -0.7500000   1.0000000  -0.7500000), wk =   0.0039062
        k(   17) = (   0.2500000   0.2500000   0.2500000), wk =   0.0039062
        k(   18) = (   0.1250000   0.3750000   0.1250000), wk =   0.0039062
        k(   19) = (   0.0000000   0.5000000   0.0000000), wk =   0.0039062
        k(   20) = (  -0.1250000   0.6250000  -0.1250000), wk =   0.0039062
        k(   21) = (  -0.2500000   0.7500000  -0.2500000), wk =   0.0039062
        k(   22) = (  -0.3750000   0.8750000  -0.3750000), wk =   0.0039062
        k(   23) = (  -0.5000000   1.0000000  -0.5000000), wk =   0.0039062
        k(   24) = (  -0.6250000   1.1250000  -0.6250000), wk =   0.0039062
        k(   25) = (   0.3750000   0.3750000   0.3750000), wk =   0.0039062
        k(   26) = (   0.2500000   0.5000000   0.2500000), wk =   0.0039062
        k(   27) = (   0.1250000   0.6250000   0.1250000), wk =   0.0039062
        k(   28) = (   0.0000000   0.7500000   0.0000000), wk =   0.0039062
        k(   29) = (  -0.1250000   0.8750000  -0.1250000), wk =   0.0039062
        k(   30) = (  -0.2500000   1.0000000  -0.2500000), wk =   0.0039062
        k(   31) = (  -0.3750000   1.1250000  -0.3750000), wk =   0.0039062
        k(   32) = (  -0.5000000   1.2500000  -0.5000000), wk =   0.0039062
        k(   33) = (   0.5000000   0.5000000   0.5000000), wk =   0.0039062
        k(   34) = (   0.3750000   0.6250000   0.3750000), wk =   0.0039062
        k(   35) = (   0.2500000   0.7500000   0.2500000), wk =   0.0039062
        k(   36) = (   0.1250000   0.8750000   0.1250000), wk =   0.0039062
        k(   37) = (   0.0000000   1.0000000   0.0000000), wk =   0.0039062
        k(   38) = (  -0.1250000   1.1250000  -0.1250000), wk =   0.0039062
        k(   39) = (  -0.2500000   1.2500000  -0.2500000), wk =   0.0039062
        k(   40) = (  -0.3750000   1.3750000  -0.3750000), wk =   0.0039062
        k(   41) = (   0.6250000   0.6250000   0.6250000), wk =   0.0039062
        k(   42) = (   0.5000000   0.7500000   0.5000000), wk =   0.0039062
        k(   43) = (   0.3750000   0.8750000   0.3750000), wk =   0.0039062
        k(   44) = (   0.2500000   1.0000000   0.2500000), wk =   0.0039062
        k(   45) = (   0.1250000   1.1250000   0.1250000), wk =   0.0039062
        k(   46) = (   0.0000000   1.2500000   0.0000000), wk =   0.0039062
        k(   47) = (  -0.1250000   1.3750000  -0.1250000), wk =   0.0039062
        k(   48) = (  -0.2500000   1.5000000  -0.2500000), wk =   0.0039062
        k(   49) = (   0.7500000   0.7500000   0.7500000), wk =   0.0039062
        k(   50) = (   0.6250000   0.8750000   0.6250000), wk =   0.0039062
        k(   51) = (   0.5000000   1.0000000   0.5000000), wk =   0.0039062
        k(   52) = (   0.3750000   1.1250000   0.3750000), wk =   0.0039062
        k(   53) = (   0.2500000   1.2500000   0.2500000), wk =   0.0039062
        k(   54) = (   0.1250000   1.3750000   0.1250000), wk =   0.0039062
        k(   55) = (   0.0000000   1.5000000   0.0000000), wk =   0.0039062
        k(   56) = (  -0.1250000   1.6250000  -0.1250000), wk =   0.0039062
        k(   57) = (   0.8750000   0.8750000   0.8750000), wk =   0.0039062
        k(   58) = (   0.7500000   1.0000000   0.7500000), wk =   0.0039062
        k(   59) = (   0.6250000   1.1250000   0.6250000), wk =   0.0039062
        k(   60) = (   0.5000000   1.2500000   0.5000000), wk =   0.0039062
        k(   61) = (   0.3750000   1.3750000   0.3750000), wk =   0.0039062
        k(   62) = (   0.2500000   1.5000000   0.2500000), wk =   0.0039062
        k(   63) = (   0.1250000   1.6250000   0.1250000), wk =   0.0039062
        k(   64) = (   0.0000000   1.7500000   0.0000000), wk =   0.0039062
        k(   65) = (  -0.1250000  -0.1250000   0.1250000), wk =   0.0039062
        k(   66) = (  -0.2500000   0.0000000   0.0000000), wk =   0.0039062
        k(   67) = (  -0.3750000   0.1250000  -0.1250000), wk =   0.0039062
        k(   68) = (  -0.5000000   0.2500000  -0.2500000), wk =   0.0039062
        k(   69) = (  -0.6250000   0.3750000  -0.3750000), wk =   0.0039062
        k(   70) = (  -0.7500000   0.5000000  -0.5000000), wk =   0.0039062
        k(   71) = (  -0.8750000   0.6250000  -0.6250000), wk =   0.0039062
        k(   72) = (  -1.0000000   0.7500000  -0.7500000), wk =   0.0039062
        k(   73) = (   0.0000000   0.0000000   0.2500000), wk =   0.0039062
        k(   74) = (  -0.1250000   0.1250000   0.1250000), wk =   0.0039062
        k(   75) = (  -0.2500000   0.2500000   0.0000000), wk =   0.0039062
        k(   76) = (  -0.3750000   0.3750000  -0.1250000), wk =   0.0039062
        k(   77) = (  -0.5000000   0.5000000  -0.2500000), wk =   0.0039062
        k(   78) = (  -0.6250000   0.6250000  -0.3750000), wk =   0.0039062
        k(   79) = (  -0.7500000   0.7500000  -0.5000000), wk =   0.0039062
        k(   80) = (  -0.8750000   0.8750000  -0.6250000), wk =   0.0039062
        k(   81) = (   0.1250000   0.1250000   0.3750000), wk =   0.0039062
        k(   82) = (   0.0000000   0.2500000   0.2500000), wk =   0.0039062
        k(   83) = (  -0.1250000   0.3750000   0.1250000), wk =   0.0039062
        k(   84) = (  -0.2500000   0.5000000   0.0000000), wk =   0.0039062
        k(   85) = (  -0.3750000   0.6250000  -0.1250000), wk =   0.0039062
        k(   86) = (  -0.5000000   0.7500000  -0.2500000), wk =   0.0039062
        k(   87) = (  -0.6250000   0.8750000  -0.3750000), wk =   0.0039062
        k(   88) = (  -0.7500000   1.0000000  -0.5000000), wk =   0.0039062
        k(   89) = (   0.2500000   0.2500000   0.5000000), wk =   0.0039062
        k(   90) = (   0.1250000   0.3750000   0.3750000), wk =   0.0039062
        k(   91) = (   0.0000000   0.5000000   0.2500000), wk =   0.0039062
        k(   92) = (  -0.1250000   0.6250000   0.1250000), wk =   0.0039062
        k(   93) = (  -0.2500000   0.7500000   0.0000000), wk =   0.0039062
        k(   94) = (  -0.3750000   0.8750000  -0.1250000), wk =   0.0039062
        k(   95) = (  -0.5000000   1.0000000  -0.2500000), wk =   0.0039062
        k(   96) = (  -0.6250000   1.1250000  -0.3750000), wk =   0.0039062
        k(   97) = (   0.3750000   0.3750000   0.6250000), wk =   0.0039062
        k(   98) = (   0.2500000   0.5000000   0.5000000), wk =   0.0039062
        k(   99) = (   0.1250000   0.6250000   0.3750000), wk =   0.0039062
        k(  100) = (   0.0000000   0.7500000   0.2500000), wk =   0.0039062
        k(  101) = (  -0.1250000   0.8750000   0.1250000), wk =   0.0039062
        k(  102) = (  -0.2500000   1.0000000   0.0000000), wk =   0.0039062
        k(  103) = (  -0.3750000   1.1250000  -0.1250000), wk =   0.0039062
        k(  104) = (  -0.5000000   1.2500000  -0.2500000), wk =   0.0039062
        k(  105) = (   0.5000000   0.5000000   0.7500000), wk =   0.0039062
        k(  106) = (   0.3750000   0.6250000   0.6250000), wk =   0.0039062
        k(  107) = (   0.2500000   0.7500000   0.5000000), wk =   0.0039062
        k(  108) = (   0.1250000   0.8750000   0.3750000), wk =   0.0039062
        k(  109) = (   0.0000000   1.0000000   0.2500000), wk =   0.0039062
        k(  110) = (  -0.1250000   1.1250000   0.1250000), wk =   0.0039062
        k(  111) = (  -0.2500000   1.2500000   0.0000000), wk =   0.0039062
        k(  112) = (  -0.3750000   1.3750000  -0.1250000), wk =   0.0039062
        k(  113) = (   0.6250000   0.6250000   0.8750000), wk =   0.0039062
        k(  114) = (   0.5000000   0.7500000   0.7500000), wk =   0.0039062
        k(  115) = (   0.3750000   0.8750000   0.6250000), wk =   0.0039062
        k(  116) = (   0.2500000   1.0000000   0.5000000), wk =   0.0039062
        k(  117) = (   0.1250000   1.1250000   0.3750000), wk =   0.0039062
        k(  118) = (   0.0000000   1.2500000   0.2500000), wk =   0.0039062
        k(  119) = (  -0.1250000   1.3750000   0.1250000), wk =   0.0039062
        k(  120) = (  -0.2500000   1.5000000   0.0000000), wk =   0.0039062
        k(  121) = (   0.7500000   0.7500000   1.0000000), wk =   0.0039062
        k(  122) = (   0.6250000   0.8750000   0.8750000), wk =   0.0039062
        k(  123) = (   0.5000000   1.0000000   0.7500000), wk =   0.0039062
        k(  124) = (   0.3750000   1.1250000   0.6250000), wk =   0.0039062
        k(  125) = (   0.2500000   1.2500000   0.5000000), wk =   0.0039062
        k(  126) = (   0.1250000   1.3750000   0.3750000), wk =   0.0039062
        k(  127) = (   0.0000000   1.5000000   0.2500000), wk =   0.0039062
        k(  128) = (  -0.1250000   1.6250000   0.1250000), wk =   0.0039062
        k(  129) = (  -0.2500000  -0.2500000   0.2500000), wk =   0.0039062
        k(  130) = (  -0.3750000  -0.1250000   0.1250000), wk =   0.0039062
        k(  131) = (  -0.5000000   0.0000000   0.0000000), wk =   0.0039062
        k(  132) = (  -0.6250000   0.1250000  -0.1250000), wk =   0.0039062
        k(  133) = (  -0.7500000   0.2500000  -0.2500000), wk =   0.0039062
        k(  134) = (  -0.8750000   0.3750000  -0.3750000), wk =   0.0039062
        k(  135) = (  -1.0000000   0.5000000  -0.5000000), wk =   0.0039062
        k(  136) = (  -1.1250000   0.6250000  -0.6250000), wk =   0.0039062
        k(  137) = (  -0.1250000  -0.1250000   0.3750000), wk =   0.0039062
        k(  138) = (  -0.2500000   0.0000000   0.2500000), wk =   0.0039062
        k(  139) = (  -0.3750000   0.1250000   0.1250000), wk =   0.0039062
        k(  140) = (  -0.5000000   0.2500000   0.0000000), wk =   0.0039062
        k(  141) = (  -0.6250000   0.3750000  -0.1250000), wk =   0.0039062
        k(  142) = (  -0.7500000   0.5000000  -0.2500000), wk =   0.0039062
        k(  143) = (  -0.8750000   0.6250000  -0.3750000), wk =   0.0039062
        k(  144) = (  -1.0000000   0.7500000  -0.5000000), wk =   0.0039062
        k(  145) = (   0.0000000   0.0000000   0.5000000), wk =   0.0039062
        k(  146) = (  -0.1250000   0.1250000   0.3750000), wk =   0.0039062
        k(  147) = (  -0.2500000   0.2500000   0.2500000), wk =   0.0039062
        k(  148) = (  -0.3750000   0.3750000   0.1250000), wk =   0.0039062
        k(  149) = (  -0.5000000   0.5000000   0.0000000), wk =   0.0039062
        k(  150) = (  -0.6250000   0.6250000  -0.1250000), wk =   0.0039062
        k(  151) = (  -0.7500000   0.7500000  -0.2500000), wk =   0.0039062
        k(  152) = (  -0.8750000   0.8750000  -0.3750000), wk =   0.0039062
        k(  153) = (   0.1250000   0.1250000   0.6250000), wk =   0.0039062
        k(  154) = (   0.0000000   0.2500000   0.5000000), wk =   0.0039062
        k(  155) = (  -0.1250000   0.3750000   0.3750000), wk =   0.0039062
        k(  156) = (  -0.2500000   0.5000000   0.2500000), wk =   0.0039062
        k(  157) = (  -0.3750000   0.6250000   0.1250000), wk =   0.0039062
        k(  158) = (  -0.5000000   0.7500000   0.0000000), wk =   0.0039062
        k(  159) = (  -0.6250000   0.8750000  -0.1250000), wk =   0.0039062
        k(  160) = (  -0.7500000   1.0000000  -0.2500000), wk =   0.0039062
        k(  161) = (   0.2500000   0.2500000   0.7500000), wk =   0.0039062
        k(  162) = (   0.1250000   0.3750000   0.6250000), wk =   0.0039062
        k(  163) = (   0.0000000   0.5000000   0.5000000), wk =   0.0039062
        k(  164) = (  -0.1250000   0.6250000   0.3750000), wk =   0.0039062
        k(  165) = (  -0.2500000   0.7500000   0.2500000), wk =   0.0039062
        k(  166) = (  -0.3750000   0.8750000   0.1250000), wk =   0.0039062
        k(  167) = (  -0.5000000   1.0000000   0.0000000), wk =   0.0039062
        k(  168) = (  -0.6250000   1.1250000  -0.1250000), wk =   0.0039062
        k(  169) = (   0.3750000   0.3750000   0.8750000), wk =   0.0039062
        k(  170) = (   0.2500000   0.5000000   0.7500000), wk =   0.0039062
        k(  171) = (   0.1250000   0.6250000   0.6250000), wk =   0.0039062
        k(  172) = (   0.0000000   0.7500000   0.5000000), wk =   0.0039062
        k(  173) = (  -0.1250000   0.8750000   0.3750000), wk =   0.0039062
        k(  174) = (  -0.2500000   1.0000000   0.2500000), wk =   0.0039062
        k(  175) = (  -0.3750000   1.1250000   0.1250000), wk =   0.0039062
        k(  176) = (  -0.5000000   1.2500000   0.0000000), wk =   0.0039062
        k(  177) = (   0.5000000   0.5000000   1.0000000), wk =   0.0039062
        k(  178) = (   0.3750000   0.6250000   0.8750000), wk =   0.0039062
        k(  179) = (   0.2500000   0.7500000   0.7500000), wk =   0.0039062
        k(  180) = (   0.1250000   0.8750000   0.6250000), wk =   0.0039062
        k(  181) = (   0.0000000   1.0000000   0.5000000), wk =   0.0039062
        k(  182) = (  -0.1250000   1.1250000   0.3750000), wk =   0.0039062
        k(  183) = (  -0.2500000   1.2500000   0.2500000), wk =   0.0039062
        k(  184) = (  -0.3750000   1.3750000   0.1250000), wk =   0.0039062
        k(  185) = (   0.6250000   0.6250000   1.1250000), wk =   0.0039062
        k(  186) = (   0.5000000   0.7500000   1.0000000), wk =   0.0039062
        k(  187) = (   0.3750000   0.8750000   0.8750000), wk =   0.0039062
        k(  188) = (   0.2500000   1.0000000   0.7500000), wk =   0.0039062
        k(  189) = (   0.1250000   1.1250000   0.6250000), wk =   0.0039062
        k(  190) = (   0.0000000   1.2500000   0.5000000), wk =   0.0039062
        k(  191) = (  -0.1250000   1.3750000   0.3750000), wk =   0.0039062
        k(  192) = (  -0.2500000   1.5000000   0.2500000), wk =   0.0039062
        k(  193) = (  -0.3750000  -0.3750000   0.3750000), wk =   0.0039062
        k(  194) = (  -0.5000000  -0.2500000   0.2500000), wk =   0.0039062
        k(  195) = (  -0.6250000  -0.1250000   0.1250000), wk =   0.0039062
        k(  196) = (  -0.7500000   0.0000000   0.0000000), wk =   0.0039062
        k(  197) = (  -0.8750000   0.1250000  -0.1250000), wk =   0.0039062
        k(  198) = (  -1.0000000   0.2500000  -0.2500000), wk =   0.0039062
        k(  199) = (  -1.1250000   0.3750000  -0.3750000), wk =   0.0039062
        k(  200) = (  -1.2500000   0.5000000  -0.5000000), wk =   0.0039062
        k(  201) = (  -0.2500000  -0.2500000   0.5000000), wk =   0.0039062
        k(  202) = (  -0.3750000  -0.1250000   0.3750000), wk =   0.0039062
        k(  203) = (  -0.5000000   0.0000000   0.2500000), wk =   0.0039062
        k(  204) = (  -0.6250000   0.1250000   0.1250000), wk =   0.0039062
        k(  205) = (  -0.7500000   0.2500000   0.0000000), wk =   0.0039062
        k(  206) = (  -0.8750000   0.3750000  -0.1250000), wk =   0.0039062
        k(  207) = (  -1.0000000   0.5000000  -0.2500000), wk =   0.0039062
        k(  208) = (  -1.1250000   0.6250000  -0.3750000), wk =   0.0039062
        k(  209) = (  -0.1250000  -0.1250000   0.6250000), wk =   0.0039062
        k(  210) = (  -0.2500000   0.0000000   0.5000000), wk =   0.0039062
        k(  211) = (  -0.3750000   0.1250000   0.3750000), wk =   0.0039062
        k(  212) = (  -0.5000000   0.2500000   0.2500000), wk =   0.0039062
        k(  213) = (  -0.6250000   0.3750000   0.1250000), wk =   0.0039062
        k(  214) = (  -0.7500000   0.5000000   0.0000000), wk =   0.0039062
        k(  215) = (  -0.8750000   0.6250000  -0.1250000), wk =   0.0039062
        k(  216) = (  -1.0000000   0.7500000  -0.2500000), wk =   0.0039062
        k(  217) = (   0.0000000   0.0000000   0.7500000), wk =   0.0039062
        k(  218) = (  -0.1250000   0.1250000   0.6250000), wk =   0.0039062
        k(  219) = (  -0.2500000   0.2500000   0.5000000), wk =   0.0039062
        k(  220) = (  -0.3750000   0.3750000   0.3750000), wk =   0.0039062
        k(  221) = (  -0.5000000   0.5000000   0.2500000), wk =   0.0039062
        k(  222) = (  -0.6250000   0.6250000   0.1250000), wk =   0.0039062
        k(  223) = (  -0.7500000   0.7500000   0.0000000), wk =   0.0039062
        k(  224) = (  -0.8750000   0.8750000  -0.1250000), wk =   0.0039062
        k(  225) = (   0.1250000   0.1250000   0.8750000), wk =   0.0039062
        k(  226) = (   0.0000000   0.2500000   0.7500000), wk =   0.0039062
        k(  227) = (  -0.1250000   0.3750000   0.6250000), wk =   0.0039062
        k(  228) = (  -0.2500000   0.5000000   0.5000000), wk =   0.0039062
        k(  229) = (  -0.3750000   0.6250000   0.3750000), wk =   0.0039062
        k(  230) = (  -0.5000000   0.7500000   0.2500000), wk =   0.0039062
        k(  231) = (  -0.6250000   0.8750000   0.1250000), wk =   0.0039062
        k(  232) = (  -0.7500000   1.0000000   0.0000000), wk =   0.0039062
        k(  233) = (   0.2500000   0.2500000   1.0000000), wk =   0.0039062
        k(  234) = (   0.1250000   0.3750000   0.8750000), wk =   0.0039062
        k(  235) = (   0.0000000   0.5000000   0.7500000), wk =   0.0039062
        k(  236) = (  -0.1250000   0.6250000   0.6250000), wk =   0.0039062
        k(  237) = (  -0.2500000   0.7500000   0.5000000), wk =   0.0039062
        k(  238) = (  -0.3750000   0.8750000   0.3750000), wk =   0.0039062
        k(  239) = (  -0.5000000   1.0000000   0.2500000), wk =   0.0039062
        k(  240) = (  -0.6250000   1.1250000   0.1250000), wk =   0.0039062
        k(  241) = (   0.3750000   0.3750000   1.1250000), wk =   0.0039062
        k(  242) = (   0.2500000   0.5000000   1.0000000), wk =   0.0039062
        k(  243) = (   0.1250000   0.6250000   0.8750000), wk =   0.0039062
        k(  244) = (   0.0000000   0.7500000   0.7500000), wk =   0.0039062
        k(  245) = (  -0.1250000   0.8750000   0.6250000), wk =   0.0039062
        k(  246) = (  -0.2500000   1.0000000   0.5000000), wk =   0.0039062
        k(  247) = (  -0.3750000   1.1250000   0.3750000), wk =   0.0039062
        k(  248) = (  -0.5000000   1.2500000   0.2500000), wk =   0.0039062
        k(  249) = (   0.5000000   0.5000000   1.2500000), wk =   0.0039062
        k(  250) = (   0.3750000   0.6250000   1.1250000), wk =   0.0039062
        k(  251) = (   0.2500000   0.7500000   1.0000000), wk =   0.0039062
        k(  252) = (   0.1250000   0.8750000   0.8750000), wk =   0.0039062
        k(  253) = (   0.0000000   1.0000000   0.7500000), wk =   0.0039062
        k(  254) = (  -0.1250000   1.1250000   0.6250000), wk =   0.0039062
        k(  255) = (  -0.2500000   1.2500000   0.5000000), wk =   0.0039062
        k(  256) = (  -0.3750000   1.3750000   0.3750000), wk =   0.0039062
        k(  257) = (  -0.5000000  -0.5000000   0.5000000), wk =   0.0039062
        k(  258) = (  -0.6250000  -0.3750000   0.3750000), wk =   0.0039062
        k(  259) = (  -0.7500000  -0.2500000   0.2500000), wk =   0.0039062
        k(  260) = (  -0.8750000  -0.1250000   0.1250000), wk =   0.0039062
        k(  261) = (  -1.0000000   0.0000000   0.0000000), wk =   0.0039062
        k(  262) = (  -1.1250000   0.1250000  -0.1250000), wk =   0.0039062
        k(  263) = (  -1.2500000   0.2500000  -0.2500000), wk =   0.0039062
        k(  264) = (  -1.3750000   0.3750000  -0.3750000), wk =   0.0039062
        k(  265) = (  -0.3750000  -0.3750000   0.6250000), wk =   0.0039062
        k(  266) = (  -0.5000000  -0.2500000   0.5000000), wk =   0.0039062
        k(  267) = (  -0.6250000  -0.1250000   0.3750000), wk =   0.0039062
        k(  268) = (  -0.7500000   0.0000000   0.2500000), wk =   0.0039062
        k(  269) = (  -0.8750000   0.1250000   0.1250000), wk =   0.0039062
        k(  270) = (  -1.0000000   0.2500000   0.0000000), wk =   0.0039062
        k(  271) = (  -1.1250000   0.3750000  -0.1250000), wk =   0.0039062
        k(  272) = (  -1.2500000   0.5000000  -0.2500000), wk =   0.0039062
        k(  273) = (  -0.2500000  -0.2500000   0.7500000), wk =   0.0039062
        k(  274) = (  -0.3750000  -0.1250000   0.6250000), wk =   0.0039062
        k(  275) = (  -0.5000000   0.0000000   0.5000000), wk =   0.0039062
        k(  276) = (  -0.6250000   0.1250000   0.3750000), wk =   0.0039062
        k(  277) = (  -0.7500000   0.2500000   0.2500000), wk =   0.0039062
        k(  278) = (  -0.8750000   0.3750000   0.1250000), wk =   0.0039062
        k(  279) = (  -1.0000000   0.5000000   0.0000000), wk =   0.0039062
        k(  280) = (  -1.1250000   0.6250000  -0.1250000), wk =   0.0039062
        k(  281) = (  -0.1250000  -0.1250000   0.8750000), wk =   0.0039062
        k(  282) = (  -0.2500000   0.0000000   0.7500000), wk =   0.0039062
        k(  283) = (  -0.3750000   0.1250000   0.6250000), wk =   0.0039062
        k(  284) = (  -0.5000000   0.2500000   0.5000000), wk =   0.0039062
        k(  285) = (  -0.6250000   0.3750000   0.3750000), wk =   0.0039062
        k(  286) = (  -0.7500000   0.5000000   0.2500000), wk =   0.0039062
        k(  287) = (  -0.8750000   0.6250000   0.1250000), wk =   0.0039062
        k(  288) = (  -1.0000000   0.7500000   0.0000000), wk =   0.0039062
        k(  289) = (   0.0000000   0.0000000   1.0000000), wk =   0.0039062
        k(  290) = (  -0.1250000   0.1250000   0.8750000), wk =   0.0039062
        k(  291) = (  -0.2500000   0.2500000   0.7500000), wk =   0.0039062
        k(  292) = (  -0.3750000   0.3750000   0.6250000), wk =   0.0039062
        k(  293) = (  -0.5000000   0.5000000   0.5000000), wk =   0.0039062
        k(  294) = (  -0.6250000   0.6250000   0.3750000), wk =   0.0039062
        k(  295) = (  -0.7500000   0.7500000   0.2500000), wk =   0.0039062
        k(  296) = (  -0.8750000   0.8750000   0.1250000), wk =   0.0039062
        k(  297) = (   0.1250000   0.1250000   1.1250000), wk =   0.0039062
        k(  298) = (   0.0000000   0.2500000   1.0000000), wk =   0.0039062
        k(  299) = (  -0.1250000   0.3750000   0.8750000), wk =   0.0039062
        k(  300) = (  -0.2500000   0.5000000   0.7500000), wk =   0.0039062
        k(  301) = (  -0.3750000   0.6250000   0.6250000), wk =   0.0039062
        k(  302) = (  -0.5000000   0.7500000   0.5000000), wk =   0.0039062
        k(  303) = (  -0.6250000   0.8750000   0.3750000), wk =   0.0039062
        k(  304) = (  -0.7500000   1.0000000   0.2500000), wk =   0.0039062
        k(  305) = (   0.2500000   0.2500000   1.2500000), wk =   0.0039062
        k(  306) = (   0.1250000   0.3750000   1.1250000), wk =   0.0039062
        k(  307) = (   0.0000000   0.5000000   1.0000000), wk =   0.0039062
        k(  308) = (  -0.1250000   0.6250000   0.8750000), wk =   0.0039062
        k(  309) = (  -0.2500000   0.7500000   0.7500000), wk =   0.0039062
        k(  310) = (  -0.3750000   0.8750000   0.6250000), wk =   0.0039062
        k(  311) = (  -0.5000000   1.0000000   0.5000000), wk =   0.0039062
        k(  312) = (  -0.6250000   1.1250000   0.3750000), wk =   0.0039062
        k(  313) = (   0.3750000   0.3750000   1.3750000), wk =   0.0039062
        k(  314) = (   0.2500000   0.5000000   1.2500000), wk =   0.0039062
        k(  315) = (   0.1250000   0.6250000   1.1250000), wk =   0.0039062
        k(  316) = (   0.0000000   0.7500000   1.0000000), wk =   0.0039062
        k(  317) = (  -0.1250000   0.8750000   0.8750000), wk =   0.0039062
        k(  318) = (  -0.2500000   1.0000000   0.7500000), wk =   0.0039062
        k(  319) = (  -0.3750000   1.1250000   0.6250000), wk =   0.0039062
        k(  320) = (  -0.5000000   1.2500000   0.5000000), wk =   0.0039062
        k(  321) = (  -0.6250000  -0.6250000   0.6250000), wk =   0.0039062
        k(  322) = (  -0.7500000  -0.5000000   0.5000000), wk =   0.0039062
        k(  323) = (  -0.8750000  -0.3750000   0.3750000), wk =   0.0039062
        k(  324) = (  -1.0000000  -0.2500000   0.2500000), wk =   0.0039062
        k(  325) = (  -1.1250000  -0.1250000   0.1250000), wk =   0.0039062
        k(  326) = (  -1.2500000   0.0000000   0.0000000), wk =   0.0039062
        k(  327) = (  -1.3750000   0.1250000  -0.1250000), wk =   0.0039062
        k(  328) = (  -1.5000000   0.2500000  -0.2500000), wk =   0.0039062
        k(  329) = (  -0.5000000  -0.5000000   0.7500000), wk =   0.0039062
        k(  330) = (  -0.6250000  -0.3750000   0.6250000), wk =   0.0039062
        k(  331) = (  -0.7500000  -0.2500000   0.5000000), wk =   0.0039062
        k(  332) = (  -0.8750000  -0.1250000   0.3750000), wk =   0.0039062
        k(  333) = (  -1.0000000   0.0000000   0.2500000), wk =   0.0039062
        k(  334) = (  -1.1250000   0.1250000   0.1250000), wk =   0.0039062
        k(  335) = (  -1.2500000   0.2500000   0.0000000), wk =   0.0039062
        k(  336) = (  -1.3750000   0.3750000  -0.1250000), wk =   0.0039062
        k(  337) = (  -0.3750000  -0.3750000   0.8750000), wk =   0.0039062
        k(  338) = (  -0.5000000  -0.2500000   0.7500000), wk =   0.0039062
        k(  339) = (  -0.6250000  -0.1250000   0.6250000), wk =   0.0039062
        k(  340) = (  -0.7500000   0.0000000   0.5000000), wk =   0.0039062
        k(  341) = (  -0.8750000   0.1250000   0.3750000), wk =   0.0039062
        k(  342) = (  -1.0000000   0.2500000   0.2500000), wk =   0.0039062
        k(  343) = (  -1.1250000   0.3750000   0.1250000), wk =   0.0039062
        k(  344) = (  -1.2500000   0.5000000   0.0000000), wk =   0.0039062
        k(  345) = (  -0.2500000  -0.2500000   1.0000000), wk =   0.0039062
        k(  346) = (  -0.3750000  -0.1250000   0.8750000), wk =   0.0039062
        k(  347) = (  -0.5000000   0.0000000   0.7500000), wk =   0.0039062
        k(  348) = (  -0.6250000   0.1250000   0.6250000), wk =   0.0039062
        k(  349) = (  -0.7500000   0.2500000   0.5000000), wk =   0.0039062
        k(  350) = (  -0.8750000   0.3750000   0.3750000), wk =   0.0039062
        k(  351) = (  -1.0000000   0.5000000   0.2500000), wk =   0.0039062
        k(  352) = (  -1.1250000   0.6250000   0.1250000), wk =   0.0039062
        k(  353) = (  -0.1250000  -0.1250000   1.1250000), wk =   0.0039062
        k(  354) = (  -0.2500000   0.0000000   1.0000000), wk =   0.0039062
        k(  355) = (  -0.3750000   0.1250000   0.8750000), wk =   0.0039062
        k(  356) = (  -0.5000000   0.2500000   0.7500000), wk =   0.0039062
        k(  357) = (  -0.6250000   0.3750000   0.6250000), wk =   0.0039062
        k(  358) = (  -0.7500000   0.5000000   0.5000000), wk =   0.0039062
        k(  359) = (  -0.8750000   0.6250000   0.3750000), wk =   0.0039062
        k(  360) = (  -1.0000000   0.7500000   0.2500000), wk =   0.0039062
        k(  361) = (   0.0000000   0.0000000   1.2500000), wk =   0.0039062
        k(  362) = (  -0.1250000   0.1250000   1.1250000), wk =   0.0039062
        k(  363) = (  -0.2500000   0.2500000   1.0000000), wk =   0.0039062
        k(  364) = (  -0.3750000   0.3750000   0.8750000), wk =   0.0039062
        k(  365) = (  -0.5000000   0.5000000   0.7500000), wk =   0.0039062
        k(  366) = (  -0.6250000   0.6250000   0.6250000), wk =   0.0039062
        k(  367) = (  -0.7500000   0.7500000   0.5000000), wk =   0.0039062
        k(  368) = (  -0.8750000   0.8750000   0.3750000), wk =   0.0039062
        k(  369) = (   0.1250000   0.1250000   1.3750000), wk =   0.0039062
        k(  370) = (   0.0000000   0.2500000   1.2500000), wk =   0.0039062
        k(  371) = (  -0.1250000   0.3750000   1.1250000), wk =   0.0039062
        k(  372) = (  -0.2500000   0.5000000   1.0000000), wk =   0.0039062
        k(  373) = (  -0.3750000   0.6250000   0.8750000), wk =   0.0039062
        k(  374) = (  -0.5000000   0.7500000   0.7500000), wk =   0.0039062
        k(  375) = (  -0.6250000   0.8750000   0.6250000), wk =   0.0039062
        k(  376) = (  -0.7500000   1.0000000   0.5000000), wk =   0.0039062
        k(  377) = (   0.2500000   0.2500000   1.5000000), wk =   0.0039062
        k(  378) = (   0.1250000   0.3750000   1.3750000), wk =   0.0039062
        k(  379) = (   0.0000000   0.5000000   1.2500000), wk =   0.0039062
        k(  380) = (  -0.1250000   0.6250000   1.1250000), wk =   0.0039062
        k(  381) = (  -0.2500000   0.7500000   1.0000000), wk =   0.0039062
        k(  382) = (  -0.3750000   0.8750000   0.8750000), wk =   0.0039062
        k(  383) = (  -0.5000000   1.0000000   0.7500000), wk =   0.0039062
        k(  384) = (  -0.6250000   1.1250000   0.6250000), wk =   0.0039062
        k(  385) = (  -0.7500000  -0.7500000   0.7500000), wk =   0.0039062
        k(  386) = (  -0.8750000  -0.6250000   0.6250000), wk =   0.0039062
        k(  387) = (  -1.0000000  -0.5000000   0.5000000), wk =   0.0039062
        k(  388) = (  -1.1250000  -0.3750000   0.3750000), wk =   0.0039062
        k(  389) = (  -1.2500000  -0.2500000   0.2500000), wk =   0.0039062
        k(  390) = (  -1.3750000  -0.1250000   0.1250000), wk =   0.0039062
        k(  391) = (  -1.5000000   0.0000000   0.0000000), wk =   0.0039062
        k(  392) = (  -1.6250000   0.1250000  -0.1250000), wk =   0.0039062
        k(  393) = (  -0.6250000  -0.6250000   0.8750000), wk =   0.0039062
        k(  394) = (  -0.7500000  -0.5000000   0.7500000), wk =   0.0039062
        k(  395) = (  -0.8750000  -0.3750000   0.6250000), wk =   0.0039062
        k(  396) = (  -1.0000000  -0.2500000   0.5000000), wk =   0.0039062
        k(  397) = (  -1.1250000  -0.1250000   0.3750000), wk =   0.0039062
        k(  398) = (  -1.2500000   0.0000000   0.2500000), wk =   0.0039062
        k(  399) = (  -1.3750000   0.1250000   0.1250000), wk =   0.0039062
        k(  400) = (  -1.5000000   0.2500000   0.0000000), wk =   0.0039062
        k(  401) = (  -0.5000000  -0.5000000   1.0000000), wk =   0.0039062
        k(  402) = (  -0.6250000  -0.3750000   0.8750000), wk =   0.0039062
        k(  403) = (  -0.7500000  -0.2500000   0.7500000), wk =   0.0039062
        k(  404) = (  -0.8750000  -0.1250000   0.6250000), wk =   0.0039062
        k(  405) = (  -1.0000000   0.0000000   0.5000000), wk =   0.0039062
        k(  406) = (  -1.1250000   0.1250000   0.3750000), wk =   0.0039062
        k(  407) = (  -1.2500000   0.2500000   0.2500000), wk =   0.0039062
        k(  408) = (  -1.3750000   0.3750000   0.1250000), wk =   0.0039062
        k(  409) = (  -0.3750000  -0.3750000   1.1250000), wk =   0.0039062
        k(  410) = (  -0.5000000  -0.2500000   1.0000000), wk =   0.0039062
        k(  411) = (  -0.6250000  -0.1250000   0.8750000), wk =   0.0039062
        k(  412) = (  -0.7500000   0.0000000   0.7500000), wk =   0.0039062
        k(  413) = (  -0.8750000   0.1250000   0.6250000), wk =   0.0039062
        k(  414) = (  -1.0000000   0.2500000   0.5000000), wk =   0.0039062
        k(  415) = (  -1.1250000   0.3750000   0.3750000), wk =   0.0039062
        k(  416) = (  -1.2500000   0.5000000   0.2500000), wk =   0.0039062
        k(  417) = (  -0.2500000  -0.2500000   1.2500000), wk =   0.0039062
        k(  418) = (  -0.3750000  -0.1250000   1.1250000), wk =   0.0039062
        k(  419) = (  -0.5000000   0.0000000   1.0000000), wk =   0.0039062
        k(  420) = (  -0.6250000   0.1250000   0.8750000), wk =   0.0039062
        k(  421) = (  -0.7500000   0.2500000   0.7500000), wk =   0.0039062
        k(  422) = (  -0.8750000   0.3750000   0.6250000), wk =   0.0039062
        k(  423) = (  -1.0000000   0.5000000   0.5000000), wk =   0.0039062
        k(  424) = (  -1.1250000   0.6250000   0.3750000), wk =   0.0039062
        k(  425) = (  -0.1250000  -0.1250000   1.3750000), wk =   0.0039062
        k(  426) = (  -0.2500000   0.0000000   1.2500000), wk =   0.0039062
        k(  427) = (  -0.3750000   0.1250000   1.1250000), wk =   0.0039062
        k(  428) = (  -0.5000000   0.2500000   1.0000000), wk =   0.0039062
        k(  429) = (  -0.6250000   0.3750000   0.8750000), wk =   0.0039062
        k(  430) = (  -0.7500000   0.5000000   0.7500000), wk =   0.0039062
        k(  431) = (  -0.8750000   0.6250000   0.6250000), wk =   0.0039062
        k(  432) = (  -1.0000000   0.7500000   0.5000000), wk =   0.0039062
        k(  433) = (   0.0000000   0.0000000   1.5000000), wk =   0.0039062
        k(  434) = (  -0.1250000   0.1250000   1.3750000), wk =   0.0039062
        k(  435) = (  -0.2500000   0.2500000   1.2500000), wk =   0.0039062
        k(  436) = (  -0.3750000   0.3750000   1.1250000), wk =   0.0039062
        k(  437) = (  -0.5000000   0.5000000   1.0000000), wk =   0.0039062
        k(  438) = (  -0.6250000   0.6250000   0.8750000), wk =   0.0039062
        k(  439) = (  -0.7500000   0.7500000   0.7500000), wk =   0.0039062
        k(  440) = (  -0.8750000   0.8750000   0.6250000), wk =   0.0039062
        k(  441) = (   0.1250000   0.1250000   1.6250000), wk =   0.0039062
        k(  442) = (   0.0000000   0.2500000   1.5000000), wk =   0.0039062
        k(  443) = (  -0.1250000   0.3750000   1.3750000), wk =   0.0039062
        k(  444) = (  -0.2500000   0.5000000   1.2500000), wk =   0.0039062
        k(  445) = (  -0.3750000   0.6250000   1.1250000), wk =   0.0039062
        k(  446) = (  -0.5000000   0.7500000   1.0000000), wk =   0.0039062
        k(  447) = (  -0.6250000   0.8750000   0.8750000), wk =   0.0039062
        k(  448) = (  -0.7500000   1.0000000   0.7500000), wk =   0.0039062
        k(  449) = (  -0.8750000  -0.8750000   0.8750000), wk =   0.0039062
        k(  450) = (  -1.0000000  -0.7500000   0.7500000), wk =   0.0039062
        k(  451) = (  -1.1250000  -0.6250000   0.6250000), wk =   0.0039062
        k(  452) = (  -1.2500000  -0.5000000   0.5000000), wk =   0.0039062
        k(  453) = (  -1.3750000  -0.3750000   0.3750000), wk =   0.0039062
        k(  454) = (  -1.5000000  -0.2500000   0.2500000), wk =   0.0039062
        k(  455) = (  -1.6250000  -0.1250000   0.1250000), wk =   0.0039062
        k(  456) = (  -1.7500000   0.0000000   0.0000000), wk =   0.0039062
        k(  457) = (  -0.7500000  -0.7500000   1.0000000), wk =   0.0039062
        k(  458) = (  -0.8750000  -0.6250000   0.8750000), wk =   0.0039062
        k(  459) = (  -1.0000000  -0.5000000   0.7500000), wk =   0.0039062
        k(  460) = (  -1.1250000  -0.3750000   0.6250000), wk =   0.0039062
        k(  461) = (  -1.2500000  -0.2500000   0.5000000), wk =   0.0039062
        k(  462) = (  -1.3750000  -0.1250000   0.3750000), wk =   0.0039062
        k(  463) = (  -1.5000000   0.0000000   0.2500000), wk =   0.0039062
        k(  464) = (  -1.6250000   0.1250000   0.1250000), wk =   0.0039062
        k(  465) = (  -0.6250000  -0.6250000   1.1250000), wk =   0.0039062
        k(  466) = (  -0.7500000  -0.5000000   1.0000000), wk =   0.0039062
        k(  467) = (  -0.8750000  -0.3750000   0.8750000), wk =   0.0039062
        k(  468) = (  -1.0000000  -0.2500000   0.7500000), wk =   0.0039062
        k(  469) = (  -1.1250000  -0.1250000   0.6250000), wk =   0.0039062
        k(  470) = (  -1.2500000   0.0000000   0.5000000), wk =   0.0039062
        k(  471) = (  -1.3750000   0.1250000   0.3750000), wk =   0.0039062
        k(  472) = (  -1.5000000   0.2500000   0.2500000), wk =   0.0039062
        k(  473) = (  -0.5000000  -0.5000000   1.2500000), wk =   0.0039062
        k(  474) = (  -0.6250000  -0.3750000   1.1250000), wk =   0.0039062
        k(  475) = (  -0.7500000  -0.2500000   1.0000000), wk =   0.0039062
        k(  476) = (  -0.8750000  -0.1250000   0.8750000), wk =   0.0039062
        k(  477) = (  -1.0000000   0.0000000   0.7500000), wk =   0.0039062
        k(  478) = (  -1.1250000   0.1250000   0.6250000), wk =   0.0039062
        k(  479) = (  -1.2500000   0.2500000   0.5000000), wk =   0.0039062
        k(  480) = (  -1.3750000   0.3750000   0.3750000), wk =   0.0039062
        k(  481) = (  -0.3750000  -0.3750000   1.3750000), wk =   0.0039062
        k(  482) = (  -0.5000000  -0.2500000   1.2500000), wk =   0.0039062
        k(  483) = (  -0.6250000  -0.1250000   1.1250000), wk =   0.0039062
        k(  484) = (  -0.7500000   0.0000000   1.0000000), wk =   0.0039062
        k(  485) = (  -0.8750000   0.1250000   0.8750000), wk =   0.0039062
        k(  486) = (  -1.0000000   0.2500000   0.7500000), wk =   0.0039062
        k(  487) = (  -1.1250000   0.3750000   0.6250000), wk =   0.0039062
        k(  488) = (  -1.2500000   0.5000000   0.5000000), wk =   0.0039062
        k(  489) = (  -0.2500000  -0.2500000   1.5000000), wk =   0.0039062
        k(  490) = (  -0.3750000  -0.1250000   1.3750000), wk =   0.0039062
        k(  491) = (  -0.5000000   0.0000000   1.2500000), wk =   0.0039062
        k(  492) = (  -0.6250000   0.1250000   1.1250000), wk =   0.0039062
        k(  493) = (  -0.7500000   0.2500000   1.0000000), wk =   0.0039062
        k(  494) = (  -0.8750000   0.3750000   0.8750000), wk =   0.0039062
        k(  495) = (  -1.0000000   0.5000000   0.7500000), wk =   0.0039062
        k(  496) = (  -1.1250000   0.6250000   0.6250000), wk =   0.0039062
        k(  497) = (  -0.1250000  -0.1250000   1.6250000), wk =   0.0039062
        k(  498) = (  -0.2500000   0.0000000   1.5000000), wk =   0.0039062
        k(  499) = (  -0.3750000   0.1250000   1.3750000), wk =   0.0039062
        k(  500) = (  -0.5000000   0.2500000   1.2500000), wk =   0.0039062
        k(  501) = (  -0.6250000   0.3750000   1.1250000), wk =   0.0039062
        k(  502) = (  -0.7500000   0.5000000   1.0000000), wk =   0.0039062
        k(  503) = (  -0.8750000   0.6250000   0.8750000), wk =   0.0039062
        k(  504) = (  -1.0000000   0.7500000   0.7500000), wk =   0.0039062
        k(  505) = (   0.0000000   0.0000000   1.7500000), wk =   0.0039062
        k(  506) = (  -0.1250000   0.1250000   1.6250000), wk =   0.0039062
        k(  507) = (  -0.2500000   0.2500000   1.5000000), wk =   0.0039062
        k(  508) = (  -0.3750000   0.3750000   1.3750000), wk =   0.0039062
        k(  509) = (  -0.5000000   0.5000000   1.2500000), wk =   0.0039062
        k(  510) = (  -0.6250000   0.6250000   1.1250000), wk =   0.0039062
        k(  511) = (  -0.7500000   0.7500000   1.0000000), wk =   0.0039062
        k(  512) = (  -0.8750000   0.8750000   0.8750000), wk =   0.0039062

                       cryst. coord.
        k(    1) = (   0.0000000   0.0000000   0.0000000), wk =   0.0039062
        k(    2) = (   0.0000000   0.0000000   0.1250000), wk =   0.0039062
        k(    3) = (   0.0000000   0.0000000   0.2500000), wk =   0.0039062
        k(    4) = (   0.0000000   0.0000000   0.3750000), wk =   0.0039062
        k(    5) = (   0.0000000   0.0000000   0.5000000), wk =   0.0039062
        k(    6) = (   0.0000000   0.0000000   0.6250000), wk =   0.0039062
        k(    7) = (   0.0000000   0.0000000   0.7500000), wk =   0.0039062
        k(    8) = (   0.0000000   0.0000000   0.8750000), wk =   0.0039062
        k(    9) = (   0.0000000   0.1250000   0.0000000), wk =   0.0039062
        k(   10) = (   0.0000000   0.1250000   0.1250000), wk =   0.0039062
        k(   11) = (   0.0000000   0.1250000   0.2500000), wk =   0.0039062
        k(   12) = (   0.0000000   0.1250000   0.3750000), wk =   0.0039062
        k(   13) = (   0.0000000   0.1250000   0.5000000), wk =   0.0039062
        k(   14) = (   0.0000000   0.1250000   0.6250000), wk =   0.0039062
        k(   15) = (   0.0000000   0.1250000   0.7500000), wk =   0.0039062
        k(   16) = (   0.0000000   0.1250000   0.8750000), wk =   0.0039062
        k(   17) = (   0.0000000   0.2500000   0.0000000), wk =   0.0039062
        k(   18) = (   0.0000000   0.2500000   0.1250000), wk =   0.0039062
        k(   19) = (   0.0000000   0.2500000   0.2500000), wk =   0.0039062
        k(   20) = (   0.0000000   0.2500000   0.3750000), wk =   0.0039062
        k(   21) = (   0.0000000   0.2500000   0.5000000), wk =   0.0039062
        k(   22) = (   0.0000000   0.2500000   0.6250000), wk =   0.0039062
        k(   23) = (   0.0000000   0.2500000   0.7500000), wk =   0.0039062
        k(   24) = (   0.0000000   0.2500000   0.8750000), wk =   0.0039062
        k(   25) = (   0.0000000   0.3750000   0.0000000), wk =   0.0039062
        k(   26) = (   0.0000000   0.3750000   0.1250000), wk =   0.0039062
        k(   27) = (   0.0000000   0.3750000   0.2500000), wk =   0.0039062
        k(   28) = (   0.0000000   0.3750000   0.3750000), wk =   0.0039062
        k(   29) = (   0.0000000   0.3750000   0.5000000), wk =   0.0039062
        k(   30) = (   0.0000000   0.3750000   0.6250000), wk =   0.0039062
        k(   31) = (   0.0000000   0.3750000   0.7500000), wk =   0.0039062
        k(   32) = (   0.0000000   0.3750000   0.8750000), wk =   0.0039062
        k(   33) = (   0.0000000   0.5000000   0.0000000), wk =   0.0039062
        k(   34) = (   0.0000000   0.5000000   0.1250000), wk =   0.0039062
        k(   35) = (   0.0000000   0.5000000   0.2500000), wk =   0.0039062
        k(   36) = (   0.0000000   0.5000000   0.3750000), wk =   0.0039062
        k(   37) = (   0.0000000   0.5000000   0.5000000), wk =   0.0039062
        k(   38) = (   0.0000000   0.5000000   0.6250000), wk =   0.0039062
        k(   39) = (   0.0000000   0.5000000   0.7500000), wk =   0.0039062
        k(   40) = (   0.0000000   0.5000000   0.8750000), wk =   0.0039062
        k(   41) = (   0.0000000   0.6250000   0.0000000), wk =   0.0039062
        k(   42) = (   0.0000000   0.6250000   0.1250000), wk =   0.0039062
        k(   43) = (   0.0000000   0.6250000   0.2500000), wk =   0.0039062
        k(   44) = (   0.0000000   0.6250000   0.3750000), wk =   0.0039062
        k(   45) = (   0.0000000   0.6250000   0.5000000), wk =   0.0039062
        k(   46) = (   0.0000000   0.6250000   0.6250000), wk =   0.0039062
        k(   47) = (   0.0000000   0.6250000   0.7500000), wk =   0.0039062
        k(   48) = (   0.0000000   0.6250000   0.8750000), wk =   0.0039062
        k(   49) = (   0.0000000   0.7500000   0.0000000), wk =   0.0039062
        k(   50) = (   0.0000000   0.7500000   0.1250000), wk =   0.0039062
        k(   51) = (   0.0000000   0.7500000   0.2500000), wk =   0.0039062
        k(   52) = (   0.0000000   0.7500000   0.3750000), wk =   0.0039062
        k(   53) = (   0.0000000   0.7500000   0.5000000), wk =   0.0039062
        k(   54) = (   0.0000000   0.7500000   0.6250000), wk =   0.0039062
        k(   55) = (   0.0000000   0.7500000   0.7500000), wk =   0.0039062
        k(   56) = (   0.0000000   0.7500000   0.8750000), wk =   0.0039062
        k(   57) = (   0.0000000   0.8750000   0.0000000), wk =   0.0039062
        k(   58) = (   0.0000000   0.8750000   0.1250000), wk =   0.0039062
        k(   59) = (   0.0000000   0.8750000   0.2500000), wk =   0.0039062
        k(   60) = (   0.0000000   0.8750000   0.3750000), wk =   0.0039062
        k(   61) = (   0.0000000   0.8750000   0.5000000), wk =   0.0039062
        k(   62) = (   0.0000000   0.8750000   0.6250000), wk =   0.0039062
        k(   63) = (   0.0000000   0.8750000   0.7500000), wk =   0.0039062
        k(   64) = (   0.0000000   0.8750000   0.8750000), wk =   0.0039062
        k(   65) = (   0.1250000   0.0000000   0.0000000), wk =   0.0039062
        k(   66) = (   0.1250000   0.0000000   0.1250000), wk =   0.0039062
        k(   67) = (   0.1250000   0.0000000   0.2500000), wk =   0.0039062
        k(   68) = (   0.1250000   0.0000000   0.3750000), wk =   0.0039062
        k(   69) = (   0.1250000   0.0000000   0.5000000), wk =   0.0039062
        k(   70) = (   0.1250000   0.0000000   0.6250000), wk =   0.0039062
        k(   71) = (   0.1250000   0.0000000   0.7500000), wk =   0.0039062
        k(   72) = (   0.1250000   0.0000000   0.8750000), wk =   0.0039062
        k(   73) = (   0.1250000   0.1250000   0.0000000), wk =   0.0039062
        k(   74) = (   0.1250000   0.1250000   0.1250000), wk =   0.0039062
        k(   75) = (   0.1250000   0.1250000   0.2500000), wk =   0.0039062
        k(   76) = (   0.1250000   0.1250000   0.3750000), wk =   0.0039062
        k(   77) = (   0.1250000   0.1250000   0.5000000), wk =   0.0039062
        k(   78) = (   0.1250000   0.1250000   0.6250000), wk =   0.0039062
        k(   79) = (   0.1250000   0.1250000   0.7500000), wk =   0.0039062
        k(   80) = (   0.1250000   0.1250000   0.8750000), wk =   0.0039062
        k(   81) = (   0.1250000   0.2500000   0.0000000), wk =   0.0039062
        k(   82) = (   0.1250000   0.2500000   0.1250000), wk =   0.0039062
        k(   83) = (   0.1250000   0.2500000   0.2500000), wk =   0.0039062
        k(   84) = (   0.1250000   0.2500000   0.3750000), wk =   0.0039062
        k(   85) = (   0.1250000   0.2500000   0.5000000), wk =   0.0039062
        k(   86) = (   0.1250000   0.2500000   0.6250000), wk =   0.0039062
        k(   87) = (   0.1250000   0.2500000   0.7500000), wk =   0.0039062
        k(   88) = (   0.1250000   0.2500000   0.8750000), wk =   0.0039062
        k(   89) = (   0.1250000   0.3750000   0.0000000), wk =   0.0039062
        k(   90) = (   0.1250000   0.3750000   0.1250000), wk =   0.0039062
        k(   91) = (   0.1250000   0.3750000   0.2500000), wk =   0.0039062
        k(   92) = (   0.1250000   0.3750000   0.3750000), wk =   0.0039062
        k(   93) = (   0.1250000   0.3750000   0.5000000), wk =   0.0039062
        k(   94) = (   0.1250000   0.3750000   0.6250000), wk =   0.0039062
        k(   95) = (   0.1250000   0.3750000   0.7500000), wk =   0.0039062
        k(   96) = (   0.1250000   0.3750000   0.8750000), wk =   0.0039062
        k(   97) = (   0.1250000   0.5000000   0.0000000), wk =   0.0039062
        k(   98) = (   0.1250000   0.5000000   0.1250000), wk =   0.0039062
        k(   99) = (   0.1250000   0.5000000   0.2500000), wk =   0.0039062
        k(  100) = (   0.1250000   0.5000000   0.3750000), wk =   0.0039062
        k(  101) = (   0.1250000   0.5000000   0.5000000), wk =   0.0039062
        k(  102) = (   0.1250000   0.5000000   0.6250000), wk =   0.0039062
        k(  103) = (   0.1250000   0.5000000   0.7500000), wk =   0.0039062
        k(  104) = (   0.1250000   0.5000000   0.8750000), wk =   0.0039062
        k(  105) = (   0.1250000   0.6250000   0.0000000), wk =   0.0039062
        k(  106) = (   0.1250000   0.6250000   0.1250000), wk =   0.0039062
        k(  107) = (   0.1250000   0.6250000   0.2500000), wk =   0.0039062
        k(  108) = (   0.1250000   0.6250000   0.3750000), wk =   0.0039062
        k(  109) = (   0.1250000   0.6250000   0.5000000), wk =   0.0039062
        k(  110) = (   0.1250000   0.6250000   0.6250000), wk =   0.0039062
        k(  111) = (   0.1250000   0.6250000   0.7500000), wk =   0.0039062
        k(  112) = (   0.1250000   0.6250000   0.8750000), wk =   0.0039062
        k(  113) = (   0.1250000   0.7500000   0.0000000), wk =   0.0039062
        k(  114) = (   0.1250000   0.7500000   0.1250000), wk =   0.0039062
        k(  115) = (   0.1250000   0.7500000   0.2500000), wk =   0.0039062
        k(  116) = (   0.1250000   0.7500000   0.3750000), wk =   0.0039062
        k(  117) = (   0.1250000   0.7500000   0.5000000), wk =   0.0039062
        k(  118) = (   0.1250000   0.7500000   0.6250000), wk =   0.0039062
        k(  119) = (   0.1250000   0.7500000   0.7500000), wk =   0.0039062
        k(  120) = (   0.1250000   0.7500000   0.8750000), wk =   0.0039062
        k(  121) = (   0.1250000   0.8750000   0.0000000), wk =   0.0039062
        k(  122) = (   0.1250000   0.8750000   0.1250000), wk =   0.0039062
        k(  123) = (   0.1250000   0.8750000   0.2500000), wk =   0.0039062
        k(  124) = (   0.1250000   0.8750000   0.3750000), wk =   0.0039062
        k(  125) = (   0.1250000   0.8750000   0.5000000), wk =   0.0039062
        k(  126) = (   0.1250000   0.8750000   0.6250000), wk =   0.0039062
        k(  127) = (   0.1250000   0.8750000   0.7500000), wk =   0.0039062
        k(  128) = (   0.1250000   0.8750000   0.8750000), wk =   0.0039062
        k(  129) = (   0.2500000   0.0000000   0.0000000), wk =   0.0039062
        k(  130) = (   0.2500000   0.0000000   0.1250000), wk =   0.0039062
        k(  131) = (   0.2500000   0.0000000   0.2500000), wk =   0.0039062
        k(  132) = (   0.2500000   0.0000000   0.3750000), wk =   0.0039062
        k(  133) = (   0.2500000   0.0000000   0.5000000), wk =   0.0039062
        k(  134) = (   0.2500000   0.0000000   0.6250000), wk =   0.0039062
        k(  135) = (   0.2500000   0.0000000   0.7500000), wk =   0.0039062
        k(  136) = (   0.2500000   0.0000000   0.8750000), wk =   0.0039062
        k(  137) = (   0.2500000   0.1250000   0.0000000), wk =   0.0039062
        k(  138) = (   0.2500000   0.1250000   0.1250000), wk =   0.0039062
        k(  139) = (   0.2500000   0.1250000   0.2500000), wk =   0.0039062
        k(  140) = (   0.2500000   0.1250000   0.3750000), wk =   0.0039062
        k(  141) = (   0.2500000   0.1250000   0.5000000), wk =   0.0039062
        k(  142) = (   0.2500000   0.1250000   0.6250000), wk =   0.0039062
        k(  143) = (   0.2500000   0.1250000   0.7500000), wk =   0.0039062
        k(  144) = (   0.2500000   0.1250000   0.8750000), wk =   0.0039062
        k(  145) = (   0.2500000   0.2500000   0.0000000), wk =   0.0039062
        k(  146) = (   0.2500000   0.2500000   0.1250000), wk =   0.0039062
        k(  147) = (   0.2500000   0.2500000   0.2500000), wk =   0.0039062
        k(  148) = (   0.2500000   0.2500000   0.3750000), wk =   0.0039062
        k(  149) = (   0.2500000   0.2500000   0.5000000), wk =   0.0039062
        k(  150) = (   0.2500000   0.2500000   0.6250000), wk =   0.0039062
        k(  151) = (   0.2500000   0.2500000   0.7500000), wk =   0.0039062
        k(  152) = (   0.2500000   0.2500000   0.8750000), wk =   0.0039062
        k(  153) = (   0.2500000   0.3750000   0.0000000), wk =   0.0039062
        k(  154) = (   0.2500000   0.3750000   0.1250000), wk =   0.0039062
        k(  155) = (   0.2500000   0.3750000   0.2500000), wk =   0.0039062
        k(  156) = (   0.2500000   0.3750000   0.3750000), wk =   0.0039062
        k(  157) = (   0.2500000   0.3750000   0.5000000), wk =   0.0039062
        k(  158) = (   0.2500000   0.3750000   0.6250000), wk =   0.0039062
        k(  159) = (   0.2500000   0.3750000   0.7500000), wk =   0.0039062
        k(  160) = (   0.2500000   0.3750000   0.8750000), wk =   0.0039062
        k(  161) = (   0.2500000   0.5000000   0.0000000), wk =   0.0039062
        k(  162) = (   0.2500000   0.5000000   0.1250000), wk =   0.0039062
        k(  163) = (   0.2500000   0.5000000   0.2500000), wk =   0.0039062
        k(  164) = (   0.2500000   0.5000000   0.3750000), wk =   0.0039062
        k(  165) = (   0.2500000   0.5000000   0.5000000), wk =   0.0039062
        k(  166) = (   0.2500000   0.5000000   0.6250000), wk =   0.0039062
        k(  167) = (   0.2500000   0.5000000   0.7500000), wk =   0.0039062
        k(  168) = (   0.2500000   0.5000000   0.8750000), wk =   0.0039062
        k(  169) = (   0.2500000   0.6250000   0.0000000), wk =   0.0039062
        k(  170) = (   0.2500000   0.6250000   0.1250000), wk =   0.0039062
        k(  171) = (   0.2500000   0.6250000   0.2500000), wk =   0.0039062
        k(  172) = (   0.2500000   0.6250000   0.3750000), wk =   0.0039062
        k(  173) = (   0.2500000   0.6250000   0.5000000), wk =   0.0039062
        k(  174) = (   0.2500000   0.6250000   0.6250000), wk =   0.0039062
[...]
     0.0000   0.0000

          k =-0.2500-0.2500 1.5000 (  1119 PWs)   bands (ev):

    -4.2657   0.9187   4.4189   4.6698   8.5055   9.9521  10.7784  11.7494
    15.6277  15.7031  16.2583  19.7553  19.8215  21.5851  23.1324  24.0178
    25.0209  28.3306  28.9238  29.9761  31.2168  31.8738  33.7640  35.6005
    36.6724  36.7763  37.0939  38.1708  39.7494  39.9655  41.4590  42.8620
    44.5933  44.6371

     occupation numbers 
     1.0000   1.0000   1.0000   1.0000   0.0000   0.0000   0.0000   0.0000
     0.0000   0.0000   0.0000   0.0000   0.0000   0.0000   0.0000   0.0000
     0.0000   0.0000   0.0000   0.0000   0.0000   0.0000   0.0000   0.0000
     0.0000   0.0000   0.0000   0.0000   0.0000   0.0000   0.0000   0.0000
     0.0000   0.0000

          k =-0.3750-0.1250 1.3750 (  1124 PWs)   bands (ev):

    -3.5859   0.3697   2.8770   4.3111   9.1370   9.8317  11.3120  12.2659
    15.3767  16.0642  18.3304  19.3204  20.5914  21.5097  23.6620  24.5980
    25.4326  27.4403  28.1829  29.2914  30.6664  32.1466  32.4842  33.7156
    35.2623  36.1844  37.6687  37.9713  38.8629  39.7908  41.6264  42.9188
    43.2167  45.7300

     occupation numbers 
     1.0000   1.0000   1.0000   1.0000   0.0000   0.0000   0.0000   0.0000
     0.0000   0.0000   0.0000   0.0000   0.0000   0.0000   0.0000   0.0000
     0.0000   0.0000   0.0000   0.0000   0.0000   0.0000   0.0000   0.0000
     0.0000   0.0000   0.0000   0.0000   0.0000   0.0000   0.0000   0.0000
     0.0000   0.0000

          k =-0.5000 0.0000 1.2500 (  1120 PWs)   bands (ev):

    -2.6590  -0.3476   1.9216   3.6300   9.1139  10.8285  11.5137  13.3489
    14.2333  15.6102  20.4776  20.6315  20.9595  22.6940  22.9672  24.7588
    25.5074  26.3242  27.5974  28.5003  29.7426  31.1690  32.2943  34.0125
    34.6896  35.7058  35.7487  37.6661  38.0780  39.3879  41.5485  44.2062
    44.2851  45.4865

     occupation numbers 
     1.0000   1.0000   1.0000   1.0000   0.0000   0.0000   0.0000   0.0000
     0.0000   0.0000   0.0000   0.0000   0.0000   0.0000   0.0000   0.0000
     0.0000   0.0000   0.0000   0.0000   0.0000   0.0000   0.0000   0.0000
     0.0000   0.0000   0.0000   0.0000   0.0000   0.0000   0.0000   0.0000
     0.0000   0.0000

          k =-0.6250 0.1250 1.1250 (  1123 PWs)   bands (ev):

    -2.2991  -0.7172   2.0963   3.2399   8.6194  10.5357  11.6015  13.7788
    14.7590  17.4572  18.6205  20.6563  21.7786  22.3834  23.9118  24.7598
    25.1071  25.7976  27.4528  28.1685  29.1806  30.7810  31.3866  34.1827
    34.8138  35.5144  37.0806  37.8591  38.5915  38.9808  41.2396  42.9966
    45.2320  45.8027

     occupation numbers 
     1.0000   1.0000   1.0000   1.0000   0.0000   0.0000   0.0000   0.0000
     0.0000   0.0000   0.0000   0.0000   0.0000   0.0000   0.0000   0.0000
     0.0000   0.0000   0.0000   0.0000   0.0000   0.0000   0.0000   0.0000
     0.0000   0.0000   0.0000   0.0000   0.0000   0.0000   0.0000   0.0000
     0.0000   0.0000

          k =-0.7500 0.2500 1.0000 (  1129 PWs)   bands (ev):

    -3.2045   0.2755   2.8258   3.4492   8.1795   8.8656  12.0838  14.3523
    16.5633  16.5750  19.2660  19.6982  20.5588  21.0003  23.0744  23.5136
    25.9708  26.2881  28.1938  28.3673  30.0216  30.5641  32.6137  34.1944
    34.6822  35.6939  38.2622  39.1955  39.3089  39.6583  40.6355  44.3770
    45.1065  45.2080

     occupation numbers 
     1.0000   1.0000   1.0000   1.0000   0.0000   0.0000   0.0000   0.0000
     0.0000   0.0000   0.0000   0.0000   0.0000   0.0000   0.0000   0.0000
     0.0000   0.0000   0.0000   0.0000   0.0000   0.0000   0.0000   0.0000
     0.0000   0.0000   0.0000   0.0000   0.0000   0.0000   0.0000   0.0000
     0.0000   0.0000

          k =-0.8750 0.3750 0.8750 (  1120 PWs)   bands (ev):

    -4.0271   1.3091   3.5447   4.0306   7.5654   9.1192  12.3418  12.6161
    16.3907  16.5381  17.9539  19.6159  20.0652  21.1953  22.3343  23.5034
    24.8906  26.1734  28.2427  30.6411  31.5595  32.7219  32.8168  33.8865
    35.4450  35.6989  36.9545  39.8356  40.0815  41.7884  43.2022  43.6019
    43.9319  44.2866

     occupation numbers 
     1.0000   1.0000   1.0000   1.0000   0.0000   0.0000   0.0000   0.0000
     0.0000   0.0000   0.0000   0.0000   0.0000   0.0000   0.0000   0.0000
     0.0000   0.0000   0.0000   0.0000   0.0000   0.0000   0.0000   0.0000
     0.0000   0.0000   0.0000   0.0000   0.0000   0.0000   0.0000   0.0000
     0.0000   0.0000

          k =-1.0000 0.5000 0.7500 (  1115 PWs)   bands (ev):

    -4.5007   1.9638   3.4939   4.8323   8.7083  10.2160  10.4501  11.8375
    14.1361  16.6348  17.3621  18.4343  20.2344  21.4783  22.2558  24.6045
    25.7725  26.9346  28.0408  29.8591  31.6119  32.4737  34.3024  35.1680
    35.8896  37.8338  38.3788  38.5423  40.5717  40.6172  42.3502  42.6773
    43.7335  45.9676

     occupation numbers 
     1.0000   1.0000   1.0000   1.0000   0.0000   0.0000   0.0000   0.0000
     0.0000   0.0000   0.0000   0.0000   0.0000   0.0000   0.0000   0.0000
     0.0000   0.0000   0.0000   0.0000   0.0000   0.0000   0.0000   0.0000
     0.0000   0.0000   0.0000   0.0000   0.0000   0.0000   0.0000   0.0000
     0.0000   0.0000

          k =-1.1250 0.6250 0.6250 (  1115 PWs)   bands (ev):

    -4.5809   1.5955   3.9186   5.5083   9.0230   9.9881  10.1369  12.6037
    12.7778  16.0958  16.4535  18.7437  20.3658  21.8395  22.8248  24.3518
    25.3263  28.0986  28.4396  29.2669  32.3637  32.8337  33.6802  35.9733
    36.2491  37.2345  37.8835  38.8352  40.3431  40.6100  41.1610  44.0604
    44.3539  45.6020

     occupation numbers 
     1.0000   1.0000   1.0000   1.0000   0.0000   0.0000   0.0000   0.0000
     0.0000   0.0000   0.0000   0.0000   0.0000   0.0000   0.0000   0.0000
     0.0000   0.0000   0.0000   0.0000   0.0000   0.0000   0.0000   0.0000
     0.0000   0.0000   0.0000   0.0000   0.0000   0.0000   0.0000   0.0000
     0.0000   0.0000

          k =-0.1250-0.1250 1.6250 (  1124 PWs)   bands (ev):

    -5.1035   3.0298   4.9406   5.0237   8.4082  10.0479  10.8008  11.0148
    13.8569  14.5565  16.2577  17.8706  19.5204  20.7874  24.0420  24.4553
    25.5921  27.8817  28.0474  29.4172  32.5100  33.4876  34.5014  36.1501
    37.8793  38.5700  38.9105  39.6603  40.1053  41.0645  42.4401  42.8496
    45.4873  45.5097

     occupation numbers 
     1.0000   1.0000   1.0000   1.0000   0.0000   0.0000   0.0000   0.0000
     0.0000   0.0000   0.0000   0.0000   0.0000   0.0000   0.0000   0.0000
     0.0000   0.0000   0.0000   0.0000   0.0000   0.0000   0.0000   0.0000
     0.0000   0.0000   0.0000   0.0000   0.0000   0.0000   0.0000   0.0000
     0.0000   0.0000

          k =-0.2500 0.0000 1.5000 (  1115 PWs)   bands (ev):

    -4.5007   1.9638   3.4939   4.8323   8.7083  10.2160  10.4501  11.8375
    14.1361  16.6348  17.3621  18.4343  20.2344  21.4783  22.2558  24.6045
    25.7725  26.9346  28.0408  29.8591  31.6119  32.4737  34.3024  35.1680
    35.8896  37.8338  38.3788  38.5423  40.5717  40.6172  42.3502  42.6773
    43.7335  45.9676

     occupation numbers 
     1.0000   1.0000   1.0000   1.0000   0.0000   0.0000   0.0000   0.0000
     0.0000   0.0000   0.0000   0.0000   0.0000   0.0000   0.0000   0.0000
     0.0000   0.0000   0.0000   0.0000   0.0000   0.0000   0.0000   0.0000
     0.0000   0.0000   0.0000   0.0000   0.0000   0.0000   0.0000   0.0000
     0.0000   0.0000

          k =-0.3750 0.1250 1.3750 (  1124 PWs)   bands (ev):

    -3.5859   0.3697   2.8770   4.3111   9.1370   9.8317  11.3120  12.2659
    15.3767  16.0642  18.3304  19.3204  20.5914  21.5097  23.6620  24.5980
    25.4326  27.4403  28.1829  29.2914  30.6664  32.1466  32.4842  33.7156
    35.2623  36.1844  37.6687  37.9713  38.8629  39.7908  41.6264  42.9188
    43.2167  45.7300

     occupation numbers 
     1.0000   1.0000   1.0000   1.0000   0.0000   0.0000   0.0000   0.0000
     0.0000   0.0000   0.0000   0.0000   0.0000   0.0000   0.0000   0.0000
     0.0000   0.0000   0.0000   0.0000   0.0000   0.0000   0.0000   0.0000
     0.0000   0.0000   0.0000   0.0000   0.0000   0.0000   0.0000   0.0000
     0.0000   0.0000

          k =-0.5000 0.2500 1.2500 (  1118 PWs)   bands (ev):

    -2.9057  -0.6126   2.7507   4.0724   9.3559   9.3669  12.2440  13.4220
    13.7379  16.9180  18.0755  18.7423  21.8712  21.9697  24.5151  24.8305
    25.8942  27.2050  27.4228  28.3649  31.4022  32.1228  32.1359  32.6109
    34.7605  36.2349  36.2617  37.7786  38.4526  39.0119  41.3478  42.0294
    43.4104  45.6134

     occupation numbers 
     1.0000   1.0000   1.0000   1.0000   0.0000   0.0000   0.0000   0.0000
     0.0000   0.0000   0.0000   0.0000   0.0000   0.0000   0.0000   0.0000
     0.0000   0.0000   0.0000   0.0000   0.0000   0.0000   0.0000   0.0000
     0.0000   0.0000   0.0000   0.0000   0.0000   0.0000   0.0000   0.0000
     0.0000   0.0000

          k =-0.6250 0.3750 1.1250 (  1124 PWs)   bands (ev):

    -3.5859   0.3697   2.8770   4.3111   9.1370   9.8317  11.3120  12.2659
    15.3767  16.0642  18.3304  19.3204  20.5914  21.5097  23.6620  24.5980
    25.4326  27.4403  28.1829  29.2914  30.6664  32.1466  32.4842  33.7156
    35.2623  36.1844  37.6687  37.9713  38.8629  39.7908  41.6264  42.9188
    43.2167  45.7300

     occupation numbers 
     1.0000   1.0000   1.0000   1.0000   0.0000   0.0000   0.0000   0.0000
     0.0000   0.0000   0.0000   0.0000   0.0000   0.0000   0.0000   0.0000
     0.0000   0.0000   0.0000   0.0000   0.0000   0.0000   0.0000   0.0000
     0.0000   0.0000   0.0000   0.0000   0.0000   0.0000   0.0000   0.0000
     0.0000   0.0000

          k =-0.7500 0.5000 1.0000 (  1115 PWs)   bands (ev):

    -4.5007   1.9638   3.4939   4.8323   8.7083  10.2160  10.4501  11.8375
    14.1361  16.6348  17.3621  18.4343  20.2344  21.4783  22.2558  24.6045
    25.7725  26.9346  28.0408  29.8591  31.6119  32.4737  34.3024  35.1680
    35.8896  37.8338  38.3788  38.5423  40.5717  40.6172  42.3502  42.6773
    43.7335  45.9676

     occupation numbers 
     1.0000   1.0000   1.0000   1.0000   0.0000   0.0000   0.0000   0.0000
     0.0000   0.0000   0.0000   0.0000   0.0000   0.0000   0.0000   0.0000
     0.0000   0.0000   0.0000   0.0000   0.0000   0.0000   0.0000   0.0000
     0.0000   0.0000   0.0000   0.0000   0.0000   0.0000   0.0000   0.0000
     0.0000   0.0000

          k =-0.8750 0.6250 0.8750 (  1124 PWs)   bands (ev):

    -5.1035   3.0298   4.9406   5.0237   8.4082  10.0479  10.8008  11.0148
    13.8569  14.5565  16.2577  17.8706  19.5204  20.7874  24.0420  24.4553
    25.5921  27.8817  28.0474  29.4172  32.5100  33.4876  34.5014  36.1501
    37.8793  38.5700  38.9105  39.6603  40.1053  41.0645  42.4401  42.8496
    45.4873  45.5097

     occupation numbers 
     1.0000   1.0000   1.0000   1.0000   0.0000   0.0000   0.0000   0.0000
     0.0000   0.0000   0.0000   0.0000   0.0000   0.0000   0.0000   0.0000
     0.0000   0.0000   0.0000   0.0000   0.0000   0.0000   0.0000   0.0000
     0.0000   0.0000   0.0000   0.0000   0.0000   0.0000   0.0000   0.0000
     0.0000   0.0000

          k =-1.0000 0.7500 0.7500 (  1121 PWs)   bands (ev):

    -5.3096   3.5819   4.6102   5.9989   9.3743   9.4371   9.6439  11.8799
    12.6428  14.3889  15.9749  17.4853  18.7109  20.8908  24.1334  24.4174
    27.2470  27.6688  28.1020  29.4494  32.7319  32.9297  34.8605  36.8271
    37.8900  38.3147  39.4781  40.4170  40.6591  40.8549  42.5338  42.8751
    45.2065  46.0673

     occupation numbers 
     1.0000   1.0000   1.0000   1.0000   0.0000   0.0000   0.0000   0.0000
     0.0000   0.0000   0.0000   0.0000   0.0000   0.0000   0.0000   0.0000
     0.0000   0.0000   0.0000   0.0000   0.0000   0.0000   0.0000   0.0000
     0.0000   0.0000   0.0000   0.0000   0.0000   0.0000   0.0000   0.0000
     0.0000   0.0000

          k = 0.0000 0.0000 1.7500 (  1134 PWs)   bands (ev):

    -5.5837   4.9627   5.4629   5.4629   8.2766  10.0306  10.0306  10.7540
    12.8181  14.3989  15.2272  18.0616  18.0616  18.5287  23.4766  26.9647
    26.9647  28.3783  28.9302  29.8409  32.6657  33.0418  33.0418  38.4318
    38.4318  38.8620  39.4309  39.4309  39.6012  41.7535  43.9248  44.4864
    45.7488  47.2947

     occupation numbers 
     1.0000   1.0000   1.0000   1.0000   0.0000   0.0000   0.0000   0.0000
     0.0000   0.0000   0.0000   0.0000   0.0000   0.0000   0.0000   0.0000
     0.0000   0.0000   0.0000   0.0000   0.0000   0.0000   0.0000   0.0000
     0.0000   0.0000   0.0000   0.0000   0.0000   0.0000   0.0000   0.0000
     0.0000   0.0000

          k =-0.1250 0.1250 1.6250 (  1124 PWs)   bands (ev):

    -5.1035   3.0298   4.9406   5.0237   8.4082  10.0479  10.8008  11.0148
    13.8569  14.5565  16.2577  17.8706  19.5204  20.7874  24.0420  24.4553
    25.5921  27.8817  28.0474  29.4172  32.5100  33.4876  34.5014  36.1501
    37.8793  38.5700  38.9105  39.6603  40.1053  41.0645  42.4401  42.8496
    45.4873  45.5097

     occupation numbers 
     1.0000   1.0000   1.0000   1.0000   0.0000   0.0000   0.0000   0.0000
     0.0000   0.0000   0.0000   0.0000   0.0000   0.0000   0.0000   0.0000
     0.0000   0.0000   0.0000   0.0000   0.0000   0.0000   0.0000   0.0000
     0.0000   0.0000   0.0000   0.0000   0.0000   0.0000   0.0000   0.0000
     0.0000   0.0000

          k =-0.2500 0.2500 1.5000 (  1119 PWs)   bands (ev):

    -4.2657   0.9187   4.4189   4.6698   8.5055   9.9521  10.7784  11.7494
    15.6277  15.7031  16.2583  19.7553  19.8215  21.5851  23.1324  24.0178
    25.0209  28.3306  28.9238  29.9761  31.2168  31.8738  33.7640  35.6005
    36.6724  36.7763  37.0939  38.1708  39.7494  39.9655  41.4590  42.8620
    44.5933  44.6371

     occupation numbers 
     1.0000   1.0000   1.0000   1.0000   0.0000   0.0000   0.0000   0.0000
     0.0000   0.0000   0.0000   0.0000   0.0000   0.0000   0.0000   0.0000
     0.0000   0.0000   0.0000   0.0000   0.0000   0.0000   0.0000   0.0000
     0.0000   0.0000   0.0000   0.0000   0.0000   0.0000   0.0000   0.0000
     0.0000   0.0000

          k =-0.3750 0.3750 1.3750 (  1125 PWs)   bands (ev):

    -3.3702  -0.5923   3.9618   4.6984   8.4576   9.7968  10.3974  13.6791
    15.2546  16.8694  17.8761  18.0695  18.8620  21.3943  24.6636  26.1312
    26.6915  27.4911  28.3566  28.7416  31.2292  32.3579  33.1095  33.8923
    34.4906  36.0933  36.5502  36.8465  39.3129  40.1655  40.6750  41.2280
    43.9234  44.4886

     occupation numbers 
     1.0000   1.0000   1.0000   1.0000   0.0000   0.0000   0.0000   0.0000
     0.0000   0.0000   0.0000   0.0000   0.0000   0.0000   0.0000   0.0000
     0.0000   0.0000   0.0000   0.0000   0.0000   0.0000   0.0000   0.0000
     0.0000   0.0000   0.0000   0.0000   0.0000   0.0000   0.0000   0.0000
     0.0000   0.0000

          k =-0.5000 0.5000 1.2500 (  1131 PWs)   bands (ev):

    -3.6262  -0.2074   3.7715   5.0045   8.6421   9.8941  10.1634  14.2078
    14.4437  15.5003  17.5455  18.8145  20.7076  21.0072  23.2480  25.0707
    26.9575  28.5326  28.8477  28.9008  31.3667  31.5084  33.7195  34.1216
    34.2902  35.5602  37.0010  37.7896  40.0320  40.0555  40.5952  41.3652
    43.9658  44.9190

     occupation numbers 
     1.0000   1.0000   1.0000   1.0000   0.0000   0.0000   0.0000   0.0000
     0.0000   0.0000   0.0000   0.0000   0.0000   0.0000   0.0000   0.0000
     0.0000   0.0000   0.0000   0.0000   0.0000   0.0000   0.0000   0.0000
     0.0000   0.0000   0.0000   0.0000   0.0000   0.0000   0.0000   0.0000
     0.0000   0.0000

          k =-0.6250 0.6250 1.1250 (  1115 PWs)   bands (ev):

    -4.5809   1.5955   3.9186   5.5083   9.0230   9.9881  10.1369  12.6037
    12.7778  16.0958  16.4535  18.7437  20.3658  21.8395  22.8248  24.3518
    25.3263  28.0986  28.4396  29.2669  32.3637  32.8337  33.6802  35.9733
    36.2491  37.2345  37.8835  38.8352  40.3431  40.6100  41.1610  44.0604
    44.3539  45.6020

     occupation numbers 
     1.0000   1.0000   1.0000   1.0000   0.0000   0.0000   0.0000   0.0000
     0.0000   0.0000   0.0000   0.0000   0.0000   0.0000   0.0000   0.0000
     0.0000   0.0000   0.0000   0.0000   0.0000   0.0000   0.0000   0.0000
     0.0000   0.0000   0.0000   0.0000   0.0000   0.0000   0.0000   0.0000
     0.0000   0.0000

          k =-0.7500 0.7500 1.0000 (  1121 PWs)   bands (ev):

    -5.3096   3.5819   4.6102   5.9989   9.3743   9.4371   9.6439  11.8799
    12.6428  14.3889  15.9749  17.4853  18.7109  20.8908  24.1334  24.4174
    27.2470  27.6688  28.1020  29.4494  32.7319  32.9297  34.8605  36.8271
    37.8900  38.3147  39.4781  40.4170  40.6591  40.8549  42.5338  42.8751
    45.2065  46.0673

     occupation numbers 
     1.0000   1.0000   1.0000   1.0000   0.0000   0.0000   0.0000   0.0000
     0.0000   0.0000   0.0000   0.0000   0.0000   0.0000   0.0000   0.0000
     0.0000   0.0000   0.0000   0.0000   0.0000   0.0000   0.0000   0.0000
     0.0000   0.0000   0.0000   0.0000   0.0000   0.0000   0.0000   0.0000
     0.0000   0.0000

          k =-0.8750 0.8750 0.8750 (  1131 PWs)   bands (ev):

    -5.6541   4.6708   5.9967   5.9967   8.8077   9.3003   9.3003  11.0735
    13.5773  13.5773  14.9215  16.9722  18.7813  18.7813  22.8558  27.5098
    27.5098  27.6671  30.2407  30.2407  32.3843  32.3843  33.2876  36.8331
    38.5939  38.5939  38.8037  40.6166  40.6166  43.2691  43.2691  44.9320
    45.5195  45.5195

     occupation numbers 
     1.0000   1.0000   1.0000   1.0000   0.0000   0.0000   0.0000   0.0000
     0.0000   0.0000   0.0000   0.0000   0.0000   0.0000   0.0000   0.0000
     0.0000   0.0000   0.0000   0.0000   0.0000   0.0000   0.0000   0.0000
     0.0000   0.0000   0.0000   0.0000   0.0000   0.0000   0.0000   0.0000
     0.0000   0.0000

     highest occupied, lowest unoccupied level (ev):     6.2918    6.8007

     Writing output data file ./Si.save/
 
     init_run     :      0.20s CPU      0.77s WALL (       1 calls)
     electrons    :     13.68s CPU     14.51s WALL (       1 calls)

     Called by init_run:
     wfcinit      :      0.00s CPU      0.05s WALL (       1 calls)
     wfcinit:atom :      0.01s CPU      0.01s WALL (       8 calls)
     wfcinit:wfcr :      0.85s CPU      1.38s WALL (       8 calls)
     potinit      :      0.03s CPU      0.07s WALL (       1 calls)
     hinit0       :      0.12s CPU      0.58s WALL (       1 calls)

     Called by electrons:
     c_bands      :     13.57s CPU     14.37s WALL (       1 calls)
     v_of_rho     :      0.01s CPU      0.01s WALL (       1 calls)
     v_h          :      0.00s CPU      0.00s WALL (       1 calls)
     v_xc         :      0.01s CPU      0.01s WALL (       1 calls)

     Called by c_bands:
     init_us_2    :      0.01s CPU      0.01s WALL (       8 calls)
     cegterg      :     12.06s CPU     12.30s WALL (      11 calls)

     Called by sum_band:

     Called by *egterg:
     cdiaghg      :      1.82s CPU      2.19s WALL (     178 calls)
     cegterg:over :      0.37s CPU      0.39s WALL (     170 calls)
     cegterg:upda :      0.39s CPU      0.40s WALL (     170 calls)
     cegterg:last :      0.17s CPU      0.17s WALL (      35 calls)
     h_psi        :     10.01s CPU     10.38s WALL (     189 calls)
     g_psi        :      0.04s CPU      0.04s WALL (     170 calls)

     Called by h_psi:
     h_psi:calbec :      0.06s CPU      0.11s WALL (     189 calls)
     vloc_psi     :      9.84s CPU     10.14s WALL (     189 calls)
     add_vuspsi   :      0.08s CPU      0.10s WALL (     189 calls)

     General routines
     calbec       :      0.06s CPU      0.11s WALL (     189 calls)
     fft          :      0.02s CPU      0.48s WALL (       3 calls)
     fftw         :      8.85s CPU      9.15s WALL (    7098 calls)
     davcio       :      0.01s CPU      0.03s WALL (      16 calls)
 
     Parallel routines
 
     PWSCF        :     15.93s CPU     18.32s WALL

 
   This run was terminated on:  10: 1:22   2Mar2021            

=------------------------------------------------------------------------------=
   JOB DONE.
=------------------------------------------------------------------------------=
