
     Program PWSCF v.6.6 starts on  2Mar2021 at 10: 0:45 

     This program is part of the open-source Quantum ESPRESSO suite
     for quantum simulation of materials; please cite
         "P. Giannozzi et al., J. Phys.:Condens. Matter 21 395502 (2009);
         "P. Giannozzi et al., J. Phys.:Condens. Matter 29 465901 (2017);
          URL http://www.quantum-espresso.org", 
     in publications or presentations arising from this work. More details at
     http://www.quantum-espresso.org/quote

     Parallel version (MPI & OpenMP), running on      17 processor cores
     Number of MPI processes:                17
     Threads/MPI process:                     1

     MPI processes distributed on     1 nodes
     K-points division:     npool     =      17
     Waiting for input...
     Reading input from standard input
Warning: card &CELL ignored
Warning: card / ignored

     Current dimensions of program PWSCF are:
     Max number of different atomic species (ntypx) = 10
     Max number of k-points (npk) =  40000
     Max angular momentum in pseudopotentials (lmaxx) =  3

     Subspace diagonalization in iterative solution of the eigenvalue problem:
     a serial algorithm will be used

     Message from routine setup:
     using ibrav=0 with symmetry is DISCOURAGED, use correct ibrav instead
 
     G-vector sticks info
     --------------------
     sticks:   dense  smooth     PW     G-vecs:    dense   smooth      PW
     Sum         571     571    187                 8873     8873    1687
 


     bravais-lattice index     =            0
     lattice parameter (alat)  =      10.1645  a.u.
     unit-cell volume          =     262.5448 (a.u.)^3
     number of atoms/cell      =            2
     number of atomic types    =            1
     number of electrons       =         8.00
     number of Kohn-Sham states=           34
     kinetic-energy cutoff     =      40.0000  Ry
     charge density cutoff     =     160.0000  Ry
     convergence threshold     =      1.0E-10
     mixing beta               =       0.7000
     number of iterations used =            8  plain     mixing
     Exchange-correlation= SLA  PZ   NOGX NOGC
                           (   1   1   0   0   0   0   0)

     celldm(1)=  10.164542  celldm(2)=   0.000000  celldm(3)=   0.000000
     celldm(4)=   0.000000  celldm(5)=   0.000000  celldm(6)=   0.000000

     crystal axes: (cart. coord. in units of alat)
               a(1) = (  -0.500000   0.000000   0.500000 )  
               a(2) = (   0.000000   0.500000   0.500000 )  
               a(3) = (  -0.500000   0.500000   0.000000 )  

     reciprocal axes: (cart. coord. in units 2 pi/alat)
               b(1) = ( -1.000000 -1.000000  1.000000 )  
               b(2) = (  1.000000  1.000000  1.000000 )  
               b(3) = ( -1.000000  1.000000 -1.000000 )  


     PseudoPot. # 1 for Si read from file:
     ./si.cpi.UPF
     MD5 check sum: b49e38a2651755062821566f72dc82b2
     Pseudo is Norm-conserving, Zval =  4.0
     Generated by new atomic code, or converted to UPF format
     Using radial grid of  495 points,  2 beta functions with: 
                l(1) =   1
                l(2) =   2

     atomic species   valence    mass     pseudopotential
        Si             4.00    28.08600     Si( 1.00)

     48 Sym. Ops., with inversion, found (36 have fractional translation)


                                    s                        frac. trans.

      isym =  1     identity                                     

 cryst.   s( 1) = (     1          0          0      )
                  (     0          1          0      )
                  (     0          0          1      )

 cart.    s( 1) = (  1.0000000  0.0000000  0.0000000 )
                  (  0.0000000  1.0000000  0.0000000 )
                  (  0.0000000  0.0000000  1.0000000 )


      isym =  2     180 deg rotation - cart. axis [0,0,1]        

 cryst.   s( 2) = (     0          1         -1      )    f =(  0.0000000 )
                  (     1          0         -1      )       (  0.0000000 )
                  (     0          0         -1      )       ( -0.5000000 )

 cart.    s( 2) = ( -1.0000000  0.0000000  0.0000000 )    f =(  0.2500000 )
                  (  0.0000000 -1.0000000  0.0000000 )       ( -0.2500000 )
                  (  0.0000000  0.0000000  1.0000000 )       (  0.0000000 )


      isym =  3     180 deg rotation - cart. axis [0,1,0]        

 cryst.   s( 3) = (    -1          0          0      )    f =( -0.5000000 )
                  (    -1          0          1      )       (  0.0000000 )
                  (    -1          1          0      )       (  0.0000000 )

 cart.    s( 3) = ( -1.0000000  0.0000000  0.0000000 )    f =(  0.2500000 )
                  (  0.0000000  1.0000000  0.0000000 )       (  0.0000000 )
                  (  0.0000000  0.0000000 -1.0000000 )       ( -0.2500000 )


      isym =  4     180 deg rotation - cart. axis [1,0,0]        

 cryst.   s( 4) = (     0         -1          1      )    f =(  0.0000000 )
                  (     0         -1          0      )       ( -0.5000000 )
                  (     1         -1          0      )       (  0.0000000 )

 cart.    s( 4) = (  1.0000000  0.0000000  0.0000000 )    f =(  0.0000000 )
                  (  0.0000000 -1.0000000  0.0000000 )       ( -0.2500000 )
                  (  0.0000000  0.0000000 -1.0000000 )       ( -0.2500000 )


      isym =  5     180 deg rotation - cart. axis [1,1,0]        

 cryst.   s( 5) = (     0         -1          0      )
                  (    -1          0          0      )
                  (     0          0         -1      )

 cart.    s( 5) = (  0.0000000  1.0000000  0.0000000 )
                  (  1.0000000  0.0000000  0.0000000 )
                  (  0.0000000  0.0000000 -1.0000000 )


      isym =  6     180 deg rotation - cart. axis [1,-1,0]       

 cryst.   s( 6) = (    -1          0          1      )    f =(  0.0000000 )
                  (     0         -1          1      )       (  0.0000000 )
                  (     0          0          1      )       ( -0.5000000 )

 cart.    s( 6) = (  0.0000000 -1.0000000  0.0000000 )    f =(  0.2500000 )
                  ( -1.0000000  0.0000000  0.0000000 )       ( -0.2500000 )
                  (  0.0000000  0.0000000 -1.0000000 )       (  0.0000000 )


      isym =  7      90 deg rotation - cart. axis [0,0,-1]       

 cryst.   s( 7) = (     0          1          0      )    f =(  0.0000000 )
                  (     0          1         -1      )       ( -0.5000000 )
                  (    -1          1          0      )       (  0.0000000 )

 cart.    s( 7) = (  0.0000000  1.0000000  0.0000000 )    f =(  0.0000000 )
                  ( -1.0000000  0.0000000  0.0000000 )       ( -0.2500000 )
                  (  0.0000000  0.0000000  1.0000000 )       ( -0.2500000 )


      isym =  8      90 deg rotation - cart. axis [0,0,1]        

 cryst.   s( 8) = (     1          0         -1      )    f =( -0.5000000 )
                  (     1          0          0      )       (  0.0000000 )
                  (     1         -1          0      )       (  0.0000000 )

 cart.    s( 8) = (  0.0000000 -1.0000000  0.0000000 )    f =(  0.2500000 )
                  (  1.0000000  0.0000000  0.0000000 )       (  0.0000000 )
                  (  0.0000000  0.0000000  1.0000000 )       ( -0.2500000 )


      isym =  9     180 deg rotation - cart. axis [1,0,1]        

 cryst.   s( 9) = (    -1          0          0      )
                  (     0          0         -1      )
                  (     0         -1          0      )

 cart.    s( 9) = (  0.0000000  0.0000000  1.0000000 )
                  (  0.0000000 -1.0000000  0.0000000 )
                  (  1.0000000  0.0000000  0.0000000 )


      isym = 10     180 deg rotation - cart. axis [-1,0,1]       

 cryst.   s(10) = (     1          0          0      )    f =( -0.5000000 )
                  (     1         -1          0      )       (  0.0000000 )
                  (     1          0         -1      )       (  0.0000000 )

 cart.    s(10) = (  0.0000000  0.0000000 -1.0000000 )    f =(  0.2500000 )
                  (  0.0000000 -1.0000000  0.0000000 )       (  0.0000000 )
                  ( -1.0000000  0.0000000  0.0000000 )       ( -0.2500000 )


      isym = 11      90 deg rotation - cart. axis [0,1,0]        

 cryst.   s(11) = (     0          1         -1      )    f =(  0.0000000 )
                  (    -1          1          0      )       ( -0.5000000 )
                  (     0          1          0      )       (  0.0000000 )

 cart.    s(11) = (  0.0000000  0.0000000  1.0000000 )    f =(  0.0000000 )
                  (  0.0000000  1.0000000  0.0000000 )       ( -0.2500000 )
                  ( -1.0000000  0.0000000  0.0000000 )       ( -0.2500000 )


      isym = 12      90 deg rotation - cart. axis [0,-1,0]       

 cryst.   s(12) = (     0         -1          1      )    f =(  0.0000000 )
                  (     0          0          1      )       (  0.0000000 )
                  (    -1          0          1      )       ( -0.5000000 )

 cart.    s(12) = (  0.0000000  0.0000000 -1.0000000 )    f =(  0.2500000 )
                  (  0.0000000  1.0000000  0.0000000 )       ( -0.2500000 )
                  (  1.0000000  0.0000000  0.0000000 )       (  0.0000000 )


      isym = 13     180 deg rotation - cart. axis [0,1,1]        

 cryst.   s(13) = (    -1          1          0      )    f =(  0.0000000 )
                  (     0          1          0      )       ( -0.5000000 )
                  (     0          1         -1      )       (  0.0000000 )

 cart.    s(13) = ( -1.0000000  0.0000000  0.0000000 )    f =(  0.0000000 )
                  (  0.0000000  0.0000000  1.0000000 )       ( -0.2500000 )
                  (  0.0000000  1.0000000  0.0000000 )       ( -0.2500000 )


      isym = 14     180 deg rotation - cart. axis [0,1,-1]       

 cryst.   s(14) = (     0          0         -1      )
                  (     0         -1          0      )
                  (    -1          0          0      )

 cart.    s(14) = ( -1.0000000  0.0000000  0.0000000 )
                  (  0.0000000  0.0000000 -1.0000000 )
                  (  0.0000000 -1.0000000  0.0000000 )


      isym = 15      90 deg rotation - cart. axis [-1,0,0]       

 cryst.   s(15) = (     0          0          1      )    f =(  0.0000000 )
                  (    -1          0          1      )       (  0.0000000 )
                  (     0         -1          1      )       ( -0.5000000 )

 cart.    s(15) = (  1.0000000  0.0000000  0.0000000 )    f =(  0.2500000 )
                  (  0.0000000  0.0000000  1.0000000 )       ( -0.2500000 )
                  (  0.0000000 -1.0000000  0.0000000 )       (  0.0000000 )


      isym = 16      90 deg rotation - cart. axis [1,0,0]        

 cryst.   s(16) = (     1         -1          0      )    f =( -0.5000000 )
                  (     1          0         -1      )       (  0.0000000 )
                  (     1          0          0      )       (  0.0000000 )

 cart.    s(16) = (  1.0000000  0.0000000  0.0000000 )    f =(  0.2500000 )
                  (  0.0000000  0.0000000 -1.0000000 )       (  0.0000000 )
                  (  0.0000000  1.0000000  0.0000000 )       ( -0.2500000 )


      isym = 17     120 deg rotation - cart. axis [-1,-1,-1]     

 cryst.   s(17) = (    -1          0          1      )    f =( -0.5000000 )
                  (    -1          1          0      )       (  0.0000000 )
                  (    -1          0          0      )       (  0.0000000 )

 cart.    s(17) = (  0.0000000  1.0000000  0.0000000 )    f =(  0.2500000 )
                  (  0.0000000  0.0000000  1.0000000 )       (  0.0000000 )
                  (  1.0000000  0.0000000  0.0000000 )       ( -0.2500000 )


      isym = 18     120 deg rotation - cart. axis [-1,1,1]       

 cryst.   s(18) = (     0          1          0      )
                  (     0          0          1      )
                  (     1          0          0      )

 cart.    s(18) = (  0.0000000 -1.0000000  0.0000000 )
                  (  0.0000000  0.0000000  1.0000000 )
                  ( -1.0000000  0.0000000  0.0000000 )


      isym = 19     120 deg rotation - cart. axis [1,1,-1]       

 cryst.   s(19) = (     1          0         -1      )    f =(  0.0000000 )
                  (     0          0         -1      )       (  0.0000000 )
                  (     0          1         -1      )       ( -0.5000000 )

 cart.    s(19) = (  0.0000000  1.0000000  0.0000000 )    f =(  0.2500000 )
                  (  0.0000000  0.0000000 -1.0000000 )       ( -0.2500000 )
                  ( -1.0000000  0.0000000  0.0000000 )       (  0.0000000 )


      isym = 20     120 deg rotation - cart. axis [1,-1,1]       

 cryst.   s(20) = (     0         -1          0      )    f =(  0.0000000 )
                  (     1         -1          0      )       ( -0.5000000 )
                  (     0         -1          1      )       (  0.0000000 )

 cart.    s(20) = (  0.0000000 -1.0000000  0.0000000 )    f =(  0.0000000 )
                  (  0.0000000  0.0000000 -1.0000000 )       ( -0.2500000 )
                  (  1.0000000  0.0000000  0.0000000 )       ( -0.2500000 )


      isym = 21     120 deg rotation - cart. axis [1,1,1]        

 cryst.   s(21) = (     0          0         -1      )    f =(  0.0000000 )
                  (     0          1         -1      )       (  0.0000000 )
                  (     1          0         -1      )       ( -0.5000000 )

 cart.    s(21) = (  0.0000000  0.0000000  1.0000000 )    f =(  0.2500000 )
                  (  1.0000000  0.0000000  0.0000000 )       ( -0.2500000 )
                  (  0.0000000  1.0000000  0.0000000 )       (  0.0000000 )


      isym = 22     120 deg rotation - cart. axis [-1,1,-1]      

 cryst.   s(22) = (    -1          1          0      )    f =( -0.5000000 )
                  (    -1          0          0      )       (  0.0000000 )
                  (    -1          0          1      )       (  0.0000000 )

 cart.    s(22) = (  0.0000000  0.0000000  1.0000000 )    f =(  0.2500000 )
                  ( -1.0000000  0.0000000  0.0000000 )       (  0.0000000 )
                  (  0.0000000 -1.0000000  0.0000000 )       ( -0.2500000 )


      isym = 23     120 deg rotation - cart. axis [1,-1,-1]      

 cryst.   s(23) = (     0          0          1      )
                  (     1          0          0      )
                  (     0          1          0      )

 cart.    s(23) = (  0.0000000  0.0000000 -1.0000000 )
                  ( -1.0000000  0.0000000  0.0000000 )
                  (  0.0000000  1.0000000  0.0000000 )


      isym = 24     120 deg rotation - cart. axis [-1,-1,1]      

 cryst.   s(24) = (     1         -1          0      )    f =(  0.0000000 )
                  (     0         -1          1      )       ( -0.5000000 )
                  (     0         -1          0      )       (  0.0000000 )

 cart.    s(24) = (  0.0000000  0.0000000 -1.0000000 )    f =(  0.0000000 )
                  (  1.0000000  0.0000000  0.0000000 )       ( -0.2500000 )
                  (  0.0000000 -1.0000000  0.0000000 )       ( -0.2500000 )


      isym = 25     inversion                                    

 cryst.   s(25) = (    -1          0          0      )
                  (     0         -1          0      )
                  (     0          0         -1      )

 cart.    s(25) = ( -1.0000000  0.0000000  0.0000000 )
                  (  0.0000000 -1.0000000  0.0000000 )
                  (  0.0000000  0.0000000 -1.0000000 )


      isym = 26     inv. 180 deg rotation - cart. axis [0,0,1]   

 cryst.   s(26) = (     0         -1          1      )    f =(  0.0000000 )
                  (    -1          0          1      )       (  0.0000000 )
                  (     0          0          1      )       ( -0.5000000 )

 cart.    s(26) = (  1.0000000  0.0000000  0.0000000 )    f =(  0.2500000 )
                  (  0.0000000  1.0000000  0.0000000 )       ( -0.2500000 )
                  (  0.0000000  0.0000000 -1.0000000 )       (  0.0000000 )


      isym = 27     inv. 180 deg rotation - cart. axis [0,1,0]   

 cryst.   s(27) = (     1          0          0      )    f =( -0.5000000 )
                  (     1          0         -1      )       (  0.0000000 )
                  (     1         -1          0      )       (  0.0000000 )

 cart.    s(27) = (  1.0000000  0.0000000  0.0000000 )    f =(  0.2500000 )
                  (  0.0000000 -1.0000000  0.0000000 )       (  0.0000000 )
                  (  0.0000000  0.0000000  1.0000000 )       ( -0.2500000 )


      isym = 28     inv. 180 deg rotation - cart. axis [1,0,0]   

 cryst.   s(28) = (     0          1         -1      )    f =(  0.0000000 )
                  (     0          1          0      )       ( -0.5000000 )
                  (    -1          1          0      )       (  0.0000000 )

 cart.    s(28) = ( -1.0000000  0.0000000  0.0000000 )    f =(  0.0000000 )
                  (  0.0000000  1.0000000  0.0000000 )       ( -0.2500000 )
                  (  0.0000000  0.0000000  1.0000000 )       ( -0.2500000 )


      isym = 29     inv. 180 deg rotation - cart. axis [1,1,0]   

 cryst.   s(29) = (     0          1          0      )
                  (     1          0          0      )
                  (     0          0          1      )

 cart.    s(29) = (  0.0000000 -1.0000000  0.0000000 )
                  ( -1.0000000  0.0000000  0.0000000 )
                  (  0.0000000  0.0000000  1.0000000 )


      isym = 30     inv. 180 deg rotation - cart. axis [1,-1,0]  

 cryst.   s(30) = (     1          0         -1      )    f =(  0.0000000 )
                  (     0          1         -1      )       (  0.0000000 )
                  (     0          0         -1      )       ( -0.5000000 )

 cart.    s(30) = (  0.0000000  1.0000000  0.0000000 )    f =(  0.2500000 )
                  (  1.0000000  0.0000000  0.0000000 )       ( -0.2500000 )
                  (  0.0000000  0.0000000  1.0000000 )       (  0.0000000 )


      isym = 31     inv.  90 deg rotation - cart. axis [0,0,-1]  

 cryst.   s(31) = (     0         -1          0      )    f =(  0.0000000 )
                  (     0         -1          1      )       ( -0.5000000 )
                  (     1         -1          0      )       (  0.0000000 )

 cart.    s(31) = (  0.0000000 -1.0000000  0.0000000 )    f =(  0.0000000 )
                  (  1.0000000  0.0000000  0.0000000 )       ( -0.2500000 )
                  (  0.0000000  0.0000000 -1.0000000 )       ( -0.2500000 )


      isym = 32     inv.  90 deg rotation - cart. axis [0,0,1]   

 cryst.   s(32) = (    -1          0          1      )    f =( -0.5000000 )
                  (    -1          0          0      )       (  0.0000000 )
                  (    -1          1          0      )       (  0.0000000 )

 cart.    s(32) = (  0.0000000  1.0000000  0.0000000 )    f =(  0.2500000 )
                  ( -1.0000000  0.0000000  0.0000000 )       (  0.0000000 )
                  (  0.0000000  0.0000000 -1.0000000 )       ( -0.2500000 )


      isym = 33     inv. 180 deg rotation - cart. axis [1,0,1]   

 cryst.   s(33) = (     1          0          0      )
                  (     0          0          1      )
                  (     0          1          0      )

 cart.    s(33) = (  0.0000000  0.0000000 -1.0000000 )
                  (  0.0000000  1.0000000  0.0000000 )
                  ( -1.0000000  0.0000000  0.0000000 )


      isym = 34     inv. 180 deg rotation - cart. axis [-1,0,1]  

 cryst.   s(34) = (    -1          0          0      )    f =( -0.5000000 )
                  (    -1          1          0      )       (  0.0000000 )
                  (    -1          0          1      )       (  0.0000000 )

 cart.    s(34) = (  0.0000000  0.0000000  1.0000000 )    f =(  0.2500000 )
                  (  0.0000000  1.0000000  0.0000000 )       (  0.0000000 )
                  (  1.0000000  0.0000000  0.0000000 )       ( -0.2500000 )


      isym = 35     inv.  90 deg rotation - cart. axis [0,1,0]   

 cryst.   s(35) = (     0         -1          1      )    f =(  0.0000000 )
                  (     1         -1          0      )       ( -0.5000000 )
                  (     0         -1          0      )       (  0.0000000 )

 cart.    s(35) = (  0.0000000  0.0000000 -1.0000000 )    f =(  0.0000000 )
                  (  0.0000000 -1.0000000  0.0000000 )       ( -0.2500000 )
                  (  1.0000000  0.0000000  0.0000000 )       ( -0.2500000 )


      isym = 36     inv.  90 deg rotation - cart. axis [0,-1,0]  

 cryst.   s(36) = (     0          1         -1      )    f =(  0.0000000 )
                  (     0          0         -1      )       (  0.0000000 )
                  (     1          0         -1      )       ( -0.5000000 )

 cart.    s(36) = (  0.0000000  0.0000000  1.0000000 )    f =(  0.2500000 )
                  (  0.0000000 -1.0000000  0.0000000 )       ( -0.2500000 )
                  ( -1.0000000  0.0000000  0.0000000 )       (  0.0000000 )


      isym = 37     inv. 180 deg rotation - cart. axis [0,1,1]   

 cryst.   s(37) = (     1         -1          0      )    f =(  0.0000000 )
                  (     0         -1          0      )       ( -0.5000000 )
                  (     0         -1          1      )       (  0.0000000 )

 cart.    s(37) = (  1.0000000  0.0000000  0.0000000 )    f =(  0.0000000 )
                  (  0.0000000  0.0000000 -1.0000000 )       ( -0.2500000 )
                  (  0.0000000 -1.0000000  0.0000000 )       ( -0.2500000 )


      isym = 38     inv. 180 deg rotation - cart. axis [0,1,-1]  

 cryst.   s(38) = (     0          0          1      )
                  (     0          1          0      )
                  (     1          0          0      )

 cart.    s(38) = (  1.0000000  0.0000000  0.0000000 )
                  (  0.0000000  0.0000000  1.0000000 )
                  (  0.0000000  1.0000000  0.0000000 )


      isym = 39     inv.  90 deg rotation - cart. axis [-1,0,0]  

 cryst.   s(39) = (     0          0         -1      )    f =(  0.0000000 )
                  (     1          0         -1      )       (  0.0000000 )
                  (     0          1         -1      )       ( -0.5000000 )

 cart.    s(39) = ( -1.0000000  0.0000000  0.0000000 )    f =(  0.2500000 )
                  (  0.0000000  0.0000000 -1.0000000 )       ( -0.2500000 )
                  (  0.0000000  1.0000000  0.0000000 )       (  0.0000000 )


      isym = 40     inv.  90 deg rotation - cart. axis [1,0,0]   

 cryst.   s(40) = (    -1          1          0      )    f =( -0.5000000 )
                  (    -1          0          1      )       (  0.0000000 )
                  (    -1          0          0      )       (  0.0000000 )

 cart.    s(40) = ( -1.0000000  0.0000000  0.0000000 )    f =(  0.2500000 )
                  (  0.0000000  0.0000000  1.0000000 )       (  0.0000000 )
                  (  0.0000000 -1.0000000  0.0000000 )       ( -0.2500000 )


      isym = 41     inv. 120 deg rotation - cart. axis [-1,-1,-1]

 cryst.   s(41) = (     1          0         -1      )    f =( -0.5000000 )
                  (     1         -1          0      )       (  0.0000000 )
                  (     1          0          0      )       (  0.0000000 )

 cart.    s(41) = (  0.0000000 -1.0000000  0.0000000 )    f =(  0.2500000 )
                  (  0.0000000  0.0000000 -1.0000000 )       (  0.0000000 )
                  ( -1.0000000  0.0000000  0.0000000 )       ( -0.2500000 )


      isym = 42     inv. 120 deg rotation - cart. axis [-1,1,1]  

 cryst.   s(42) = (     0         -1          0      )
                  (     0          0         -1      )
                  (    -1          0          0      )

 cart.    s(42) = (  0.0000000  1.0000000  0.0000000 )
                  (  0.0000000  0.0000000 -1.0000000 )
                  (  1.0000000  0.0000000  0.0000000 )


      isym = 43     inv. 120 deg rotation - cart. axis [1,1,-1]  

 cryst.   s(43) = (    -1          0          1      )    f =(  0.0000000 )
                  (     0          0          1      )       (  0.0000000 )
                  (     0         -1          1      )       ( -0.5000000 )

 cart.    s(43) = (  0.0000000 -1.0000000  0.0000000 )    f =(  0.2500000 )
                  (  0.0000000  0.0000000  1.0000000 )       ( -0.2500000 )
                  (  1.0000000  0.0000000  0.0000000 )       (  0.0000000 )


      isym = 44     inv. 120 deg rotation - cart. axis [1,-1,1]  

 cryst.   s(44) = (     0          1          0      )    f =(  0.0000000 )
                  (    -1          1          0      )       ( -0.5000000 )
                  (     0          1         -1      )       (  0.0000000 )

 cart.    s(44) = (  0.0000000  1.0000000  0.0000000 )    f =(  0.0000000 )
                  (  0.0000000  0.0000000  1.0000000 )       ( -0.2500000 )
                  ( -1.0000000  0.0000000  0.0000000 )       ( -0.2500000 )


      isym = 45     inv. 120 deg rotation - cart. axis [1,1,1]   

 cryst.   s(45) = (     0          0          1      )    f =(  0.0000000 )
                  (     0         -1          1      )       (  0.0000000 )
                  (    -1          0          1      )       ( -0.5000000 )

 cart.    s(45) = (  0.0000000  0.0000000 -1.0000000 )    f =(  0.2500000 )
                  ( -1.0000000  0.0000000  0.0000000 )       ( -0.2500000 )
                  (  0.0000000 -1.0000000  0.0000000 )       (  0.0000000 )


      isym = 46     inv. 120 deg rotation - cart. axis [-1,1,-1] 

 cryst.   s(46) = (     1         -1          0      )    f =( -0.5000000 )
                  (     1          0          0      )       (  0.0000000 )
                  (     1          0         -1      )       (  0.0000000 )

 cart.    s(46) = (  0.0000000  0.0000000 -1.0000000 )    f =(  0.2500000 )
                  (  1.0000000  0.0000000  0.0000000 )       (  0.0000000 )
                  (  0.0000000  1.0000000  0.0000000 )       ( -0.2500000 )


      isym = 47     inv. 120 deg rotation - cart. axis [1,-1,-1] 

 cryst.   s(47) = (     0          0         -1      )
                  (    -1          0          0      )
                  (     0         -1          0      )

 cart.    s(47) = (  0.0000000  0.0000000  1.0000000 )
                  (  1.0000000  0.0000000  0.0000000 )
                  (  0.0000000 -1.0000000  0.0000000 )


      isym = 48     inv. 120 deg rotation - cart. axis [-1,-1,1] 

 cryst.   s(48) = (    -1          1          0      )    f =(  0.0000000 )
                  (     0          1         -1      )       ( -0.5000000 )
                  (     0          1          0      )       (  0.0000000 )

 cart.    s(48) = (  0.0000000  0.0000000  1.0000000 )    f =(  0.0000000 )
                  ( -1.0000000  0.0000000  0.0000000 )       ( -0.2500000 )
                  (  0.0000000  1.0000000  0.0000000 )       ( -0.2500000 )


   Cartesian axes

     site n.     atom                  positions (alat units)
         1           Si  tau(   1) = (   0.1250000  -0.1250000  -0.1250000  )
         2           Si  tau(   2) = (  -0.1250000   0.1250000   0.1250000  )

   Crystallographic axes

     site n.     atom                  positions (cryst. coord.)
         1           Si  tau(   1) = ( -0.1250000 -0.1250000 -0.1250000  )
         2           Si  tau(   2) = (  0.1250000  0.1250000  0.1250000  )

     number of k points=    60
                       cart. coord. in units 2pi/alat
        k(    1) = (  -0.0625000   0.0625000   0.0625000), wk =   0.0078125
        k(    2) = (  -0.1875000   0.1875000  -0.0625000), wk =   0.0234375
        k(    3) = (  -0.3125000   0.3125000  -0.1875000), wk =   0.0234375
        k(    4) = (  -0.4375000   0.4375000  -0.3125000), wk =   0.0234375
        k(    5) = (   0.4375000  -0.4375000   0.5625000), wk =   0.0234375
        k(    6) = (   0.3125000  -0.3125000   0.4375000), wk =   0.0234375
        k(    7) = (   0.1875000  -0.1875000   0.3125000), wk =   0.0234375
        k(    8) = (   0.0625000  -0.0625000   0.1875000), wk =   0.0234375
        k(    9) = (  -0.0625000   0.3125000   0.0625000), wk =   0.0234375
        k(   10) = (  -0.1875000   0.4375000  -0.0625000), wk =   0.0468750
        k(   11) = (  -0.3125000   0.5625000  -0.1875000), wk =   0.0468750
        k(   12) = (   0.5625000  -0.3125000   0.6875000), wk =   0.0468750
        k(   13) = (   0.4375000  -0.1875000   0.5625000), wk =   0.0468750
        k(   14) = (   0.3125000  -0.0625000   0.4375000), wk =   0.0468750
        k(   15) = (   0.1875000   0.0625000   0.3125000), wk =   0.0468750
        k(   16) = (  -0.0625000   0.5625000   0.0625000), wk =   0.0234375
        k(   17) = (  -0.1875000   0.6875000  -0.0625000), wk =   0.0468750
        k(   18) = (   0.6875000  -0.1875000   0.8125000), wk =   0.0468750
        k(   19) = (   0.5625000  -0.0625000   0.6875000), wk =   0.0468750
        k(   20) = (   0.4375000   0.0625000   0.5625000), wk =   0.0468750
        k(   21) = (   0.3125000   0.1875000   0.4375000), wk =   0.0468750
        k(   22) = (  -0.0625000   0.8125000   0.0625000), wk =   0.0234375
        k(   23) = (   0.8125000  -0.0625000   0.9375000), wk =   0.0468750
        k(   24) = (   0.6875000   0.0625000   0.8125000), wk =   0.0468750
        k(   25) = (   0.5625000   0.1875000   0.6875000), wk =   0.0468750
        k(   26) = (   0.4375000   0.3125000   0.5625000), wk =   0.0468750
        k(   27) = (  -0.0625000  -0.9375000   0.0625000), wk =   0.0234375
        k(   28) = (  -0.1875000  -0.8125000  -0.0625000), wk =   0.0468750
        k(   29) = (  -0.3125000  -0.6875000  -0.1875000), wk =   0.0468750
        k(   30) = (  -0.0625000  -0.6875000   0.0625000), wk =   0.0234375
        k(   31) = (  -0.1875000  -0.5625000  -0.0625000), wk =   0.0468750
        k(   32) = (  -0.0625000  -0.4375000   0.0625000), wk =   0.0234375
        k(   33) = (  -0.1875000   0.1875000   0.1875000), wk =   0.0078125
        k(   34) = (  -0.3125000   0.3125000   0.0625000), wk =   0.0234375
        k(   35) = (  -0.4375000   0.4375000  -0.0625000), wk =   0.0234375
        k(   36) = (   0.4375000  -0.4375000   0.8125000), wk =   0.0234375
        k(   37) = (   0.3125000  -0.3125000   0.6875000), wk =   0.0234375
        k(   38) = (   0.1875000  -0.1875000   0.5625000), wk =   0.0234375
        k(   39) = (  -0.1875000   0.4375000   0.1875000), wk =   0.0234375
        k(   40) = (  -0.3125000   0.5625000   0.0625000), wk =   0.0468750
        k(   41) = (   0.5625000  -0.3125000   0.9375000), wk =   0.0468750
        k(   42) = (   0.4375000  -0.1875000   0.8125000), wk =   0.0468750
        k(   43) = (   0.3125000  -0.0625000   0.6875000), wk =   0.0468750
        k(   44) = (  -0.1875000   0.6875000   0.1875000), wk =   0.0234375
        k(   45) = (   0.6875000  -0.1875000   1.0625000), wk =   0.0468750
        k(   46) = (   0.5625000  -0.0625000   0.9375000), wk =   0.0468750
        k(   47) = (   0.4375000   0.0625000   0.8125000), wk =   0.0468750
        k(   48) = (  -0.1875000  -1.0625000   0.1875000), wk =   0.0234375
        k(   49) = (  -0.3125000  -0.9375000   0.0625000), wk =   0.0468750
        k(   50) = (  -0.1875000  -0.8125000   0.1875000), wk =   0.0234375
        k(   51) = (  -0.3125000   0.3125000   0.3125000), wk =   0.0078125
        k(   52) = (  -0.4375000   0.4375000   0.1875000), wk =   0.0234375
        k(   53) = (   0.4375000  -0.4375000   1.0625000), wk =   0.0234375
        k(   54) = (   0.3125000  -0.3125000   0.9375000), wk =   0.0234375
        k(   55) = (  -0.3125000   0.5625000   0.3125000), wk =   0.0234375
        k(   56) = (   0.5625000  -0.3125000   1.1875000), wk =   0.0468750
        k(   57) = (   0.4375000  -0.1875000   1.0625000), wk =   0.0468750
        k(   58) = (  -0.3125000  -1.1875000   0.3125000), wk =   0.0234375
        k(   59) = (  -0.4375000   0.4375000   0.4375000), wk =   0.0078125
        k(   60) = (   0.4375000  -0.4375000   1.3125000), wk =   0.0234375

                       cryst. coord.
        k(    1) = (   0.0625000   0.0625000   0.0625000), wk =   0.0078125
        k(    2) = (   0.0625000   0.0625000   0.1875000), wk =   0.0234375
        k(    3) = (   0.0625000   0.0625000   0.3125000), wk =   0.0234375
        k(    4) = (   0.0625000   0.0625000   0.4375000), wk =   0.0234375
        k(    5) = (   0.0625000   0.0625000  -0.4375000), wk =   0.0234375
        k(    6) = (   0.0625000   0.0625000  -0.3125000), wk =   0.0234375
        k(    7) = (   0.0625000   0.0625000  -0.1875000), wk =   0.0234375
        k(    8) = (   0.0625000   0.0625000  -0.0625000), wk =   0.0234375
        k(    9) = (   0.0625000   0.1875000   0.1875000), wk =   0.0234375
        k(   10) = (   0.0625000   0.1875000   0.3125000), wk =   0.0468750
        k(   11) = (   0.0625000   0.1875000   0.4375000), wk =   0.0468750
        k(   12) = (   0.0625000   0.1875000  -0.4375000), wk =   0.0468750
        k(   13) = (   0.0625000   0.1875000  -0.3125000), wk =   0.0468750
        k(   14) = (   0.0625000   0.1875000  -0.1875000), wk =   0.0468750
        k(   15) = (   0.0625000   0.1875000  -0.0625000), wk =   0.0468750
        k(   16) = (   0.0625000   0.3125000   0.3125000), wk =   0.0234375
        k(   17) = (   0.0625000   0.3125000   0.4375000), wk =   0.0468750
        k(   18) = (   0.0625000   0.3125000  -0.4375000), wk =   0.0468750
        k(   19) = (   0.0625000   0.3125000  -0.3125000), wk =   0.0468750
        k(   20) = (   0.0625000   0.3125000  -0.1875000), wk =   0.0468750
        k(   21) = (   0.0625000   0.3125000  -0.0625000), wk =   0.0468750
        k(   22) = (   0.0625000   0.4375000   0.4375000), wk =   0.0234375
        k(   23) = (   0.0625000   0.4375000  -0.4375000), wk =   0.0468750
        k(   24) = (   0.0625000   0.4375000  -0.3125000), wk =   0.0468750
        k(   25) = (   0.0625000   0.4375000  -0.1875000), wk =   0.0468750
        k(   26) = (   0.0625000   0.4375000  -0.0625000), wk =   0.0468750
        k(   27) = (   0.0625000  -0.4375000  -0.4375000), wk =   0.0234375
        k(   28) = (   0.0625000  -0.4375000  -0.3125000), wk =   0.0468750
        k(   29) = (   0.0625000  -0.4375000  -0.1875000), wk =   0.0468750
        k(   30) = (   0.0625000  -0.3125000  -0.3125000), wk =   0.0234375
        k(   31) = (   0.0625000  -0.3125000  -0.1875000), wk =   0.0468750
        k(   32) = (   0.0625000  -0.1875000  -0.1875000), wk =   0.0234375
        k(   33) = (   0.1875000   0.1875000   0.1875000), wk =   0.0078125
        k(   34) = (   0.1875000   0.1875000   0.3125000), wk =   0.0234375
        k(   35) = (   0.1875000   0.1875000   0.4375000), wk =   0.0234375
        k(   36) = (   0.1875000   0.1875000  -0.4375000), wk =   0.0234375
        k(   37) = (   0.1875000   0.1875000  -0.3125000), wk =   0.0234375
        k(   38) = (   0.1875000   0.1875000  -0.1875000), wk =   0.0234375
        k(   39) = (   0.1875000   0.3125000   0.3125000), wk =   0.0234375
        k(   40) = (   0.1875000   0.3125000   0.4375000), wk =   0.0468750
        k(   41) = (   0.1875000   0.3125000  -0.4375000), wk =   0.0468750
        k(   42) = (   0.1875000   0.3125000  -0.3125000), wk =   0.0468750
        k(   43) = (   0.1875000   0.3125000  -0.1875000), wk =   0.0468750
        k(   44) = (   0.1875000   0.4375000   0.4375000), wk =   0.0234375
        k(   45) = (   0.1875000   0.4375000  -0.4375000), wk =   0.0468750
        k(   46) = (   0.1875000   0.4375000  -0.3125000), wk =   0.0468750
        k(   47) = (   0.1875000   0.4375000  -0.1875000), wk =   0.0468750
        k(   48) = (   0.1875000  -0.4375000  -0.4375000), wk =   0.0234375
        k(   49) = (   0.1875000  -0.4375000  -0.3125000), wk =   0.0468750
        k(   50) = (   0.1875000  -0.3125000  -0.3125000), wk =   0.0234375
        k(   51) = (   0.3125000   0.3125000   0.3125000), wk =   0.0078125
        k(   52) = (   0.3125000   0.3125000   0.4375000), wk =   0.0234375
        k(   53) = (   0.3125000   0.3125000  -0.4375000), wk =   0.0234375
        k(   54) = (   0.3125000   0.3125000  -0.3125000), wk =   0.0234375
        k(   55) = (   0.3125000   0.4375000   0.4375000), wk =   0.0234375
        k(   56) = (   0.3125000   0.4375000  -0.4375000), wk =   0.0468750
        k(   57) = (   0.3125000   0.4375000  -0.3125000), wk =   0.0468750
        k(   58) = (   0.3125000  -0.4375000  -0.4375000), wk =   0.0234375
        k(   59) = (   0.4375000   0.4375000   0.4375000), wk =   0.0078125
        k(   60) = (   0.4375000   0.4375000  -0.4375000), wk =   0.0234375

     Dense  grid:     8873 G-vectors     FFT dimensions: (  30,  30,  30)

     Dynamical RAM for                 wfc:       0.58 MB

     Dynamical RAM for     wfc (w. buffer):       2.91 MB

     Dynamical RAM for           str. fact:       0.14 MB

     Dynamical RAM for           local pot:       0.00 MB

     Dynamical RAM for          nlocal pot:       0.27 MB

     Dynamical RAM for                qrad:       0.15 MB

     Dynamical RAM for          rho,v,vnew:       1.02 MB

     Dynamical RAM for               rhoin:       0.34 MB

     Dynamical RAM for            rho*nmix:       2.17 MB

     Dynamical RAM for           G-vectors:       0.58 MB

     Dynamical RAM for          h,s,v(r/c):       0.85 MB

     Dynamical RAM for          <psi|beta>:       0.01 MB

     Dynamical RAM for                 psi:       2.33 MB

     Dynamical RAM for                hpsi:       2.33 MB

     Dynamical RAM for      wfcinit/wfcrot:       1.19 MB

     Estimated static dynamical RAM per process >       8.87 MB

     Estimated max dynamical RAM per process >      14.38 MB

     Estimated total dynamical RAM >     244.54 MB

     Initial potential from superposition of free atoms

     starting charge    7.51826, renormalised to    8.00000
     Starting wfcs are   18 randomized atomic wfcs +   16 random wfcs

     total cpu time spent up to now is        2.3 secs

     Self-consistent Calculation

     iteration #  1     ecut=    40.00 Ry     beta= 0.70
     Davidson diagonalization with overlap
     ethr =  1.00E-02,  avg # of iterations =  5.1

     Threshold (ethr) on eigenvalues was too large:
     Diagonalizing with lowered threshold

     Davidson diagonalization with overlap
     ethr =  5.17E-04,  avg # of iterations =  4.2

     total cpu time spent up to now is        5.2 secs

     total energy              =     -15.89127995 Ry
     estimated scf accuracy    <       0.04137532 Ry

     iteration #  2     ecut=    40.00 Ry     beta= 0.70
     Davidson diagonalization with overlap
     ethr =  5.17E-04,  avg # of iterations =  1.0

     total cpu time spent up to now is        6.0 secs

     total energy              =     -15.89239413 Ry
     estimated scf accuracy    <       0.00204094 Ry

     iteration #  3     ecut=    40.00 Ry     beta= 0.70
     Davidson diagonalization with overlap
     ethr =  2.55E-05,  avg # of iterations =  3.2

     total cpu time spent up to now is        7.1 secs

     total energy              =     -15.89240353 Ry
     estimated scf accuracy    <       0.00002828 Ry

     iteration #  4     ecut=    40.00 Ry     beta= 0.70
     Davidson diagonalization with overlap
     ethr =  3.54E-07,  avg # of iterations =  4.5

     total cpu time spent up to now is        8.2 secs

     total energy              =     -15.89240387 Ry
     estimated scf accuracy    <       0.00000001 Ry

     iteration #  5     ecut=    40.00 Ry     beta= 0.70
     Davidson diagonalization with overlap
     ethr =  1.39E-10,  avg # of iterations =  5.2

     total cpu time spent up to now is        9.9 secs

     total energy              =     -15.89240387 Ry
     estimated scf accuracy    <          2.0E-10 Ry

     iteration #  6     ecut=    40.00 Ry     beta= 0.70
     Davidson diagonalization with overlap
     ethr =  2.53E-12,  avg # of iterations =  2.7

     total cpu time spent up to now is       11.0 secs

     End of self-consistent calculation

          k =-0.0625 0.0625 0.0625 (  1115 PWs)   bands (ev):

    -5.8106   5.7554   6.2053   6.2053   8.9332   8.9943   8.9943  10.1220
    13.9126  13.9126  14.3331  17.3636  17.9232  17.9232  21.9381  28.8392
    28.9352  28.9352  30.3085  30.3085  32.0625  32.0625  32.3102  36.6842
    37.2264  37.2264  40.4069  40.9827  40.9827  44.5090  44.5090  44.5703
    46.7257  46.7257

     occupation numbers 
     1.0000   1.0000   1.0000   1.0000   0.0000   0.0000   0.0000   0.0000
     0.0000   0.0000   0.0000   0.0000   0.0000   0.0000   0.0000   0.0000
     0.0000   0.0000   0.0000   0.0000   0.0000   0.0000   0.0000   0.0000
     0.0000   0.0000   0.0000   0.0000   0.0000   0.0000   0.0000   0.0000
     0.0000   0.0000

          k =-0.1875 0.1875-0.0625 (  1133 PWs)   bands (ev):

    -5.5329   4.2274   5.3613   6.0897   9.0180   9.2435   9.5538  11.5241
    13.0432  13.8767  15.3220  17.1612  18.5539  19.7440  23.4906  25.8530
    27.5494  27.6432  29.4294  29.9503  32.5743  32.6623  33.9153  37.3447
    38.0447  38.7534  39.5207  39.7251  40.8464  41.9545  43.1833  44.1233
    45.0367  45.9485

     occupation numbers 
     1.0000   1.0000   1.0000   1.0000   0.0000   0.0000   0.0000   0.0000
     0.0000   0.0000   0.0000   0.0000   0.0000   0.0000   0.0000   0.0000
     0.0000   0.0000   0.0000   0.0000   0.0000   0.0000   0.0000   0.0000
     0.0000   0.0000   0.0000   0.0000   0.0000   0.0000   0.0000   0.0000
     0.0000   0.0000

          k =-0.3125 0.3125-0.1875 (  1116 PWs)   bands (ev):

    -4.8608   1.9321   4.8649   5.6152   8.5695   9.7269  10.0138  12.9531
    13.0931  14.8998  15.4260  18.5758  20.6840  21.9936  22.9051  24.3328
    24.7072  27.0278  29.7644  30.0243  32.8371  32.8910  33.7547  35.9602
    37.1970  38.0511  38.3439  38.9884  40.0069  40.3207  41.5173  44.5635
    44.6938  45.2888

     occupation numbers 
     1.0000   1.0000   1.0000   1.0000   0.0000   0.0000   0.0000   0.0000
     0.0000   0.0000   0.0000   0.0000   0.0000   0.0000   0.0000   0.0000
     0.0000   0.0000   0.0000   0.0000   0.0000   0.0000   0.0000   0.0000
     0.0000   0.0000   0.0000   0.0000   0.0000   0.0000   0.0000   0.0000
     0.0000   0.0000

          k =-0.4375 0.4375-0.3125 (  1126 PWs)   bands (ev):

    -3.9148  -0.0277   4.6493   5.1961   8.2495   9.7538   9.7587  14.0870
    14.6504  15.4525  17.0746  18.7169  20.4281  20.6802  23.2153  24.9010
    26.1483  29.2954  29.6771  29.7172  30.4001  32.2834  33.5333  34.6180
    34.6187  36.2999  37.7347  38.3597  39.1235  39.7344  40.4955  41.0406
    44.3313  44.5050

     occupation numbers 
     1.0000   1.0000   1.0000   1.0000   0.0000   0.0000   0.0000   0.0000
     0.0000   0.0000   0.0000   0.0000   0.0000   0.0000   0.0000   0.0000
     0.0000   0.0000   0.0000   0.0000   0.0000   0.0000   0.0000   0.0000
     0.0000   0.0000   0.0000   0.0000   0.0000   0.0000   0.0000   0.0000
     0.0000   0.0000

          k = 0.4375-0.4375 0.5625 (  1130 PWs)   bands (ev):

    -3.4347  -0.7676   4.7061   4.9681   8.1660   9.5373   9.8257  14.1092
    15.7435  16.9102  17.7223  17.8435  18.4995  19.8802  25.2692  26.6330
    27.1630  27.9888  28.3202  28.8170  32.0636  32.3453  32.7612  33.9130
    34.1784  35.2234  37.7599  37.7694  39.1874  39.6742  39.9044  40.5079
    43.8597  44.0902

     occupation numbers 
     1.0000   1.0000   1.0000   1.0000   0.0000   0.0000   0.0000   0.0000
     0.0000   0.0000   0.0000   0.0000   0.0000   0.0000   0.0000   0.0000
     0.0000   0.0000   0.0000   0.0000   0.0000   0.0000   0.0000   0.0000
     0.0000   0.0000   0.0000   0.0000   0.0000   0.0000   0.0000   0.0000
     0.0000   0.0000

          k = 0.3125-0.3125 0.4375 (  1122 PWs)   bands (ev):

    -4.2407   0.5547   4.9836   5.0031   8.3308   9.5673  10.1108  13.2543
    14.7985  15.3032  15.9979  19.9856  19.9943  21.3534  23.1906  23.9755
    25.0381  29.0241  29.7085  30.1794  30.8961  32.2752  33.5697  35.4402
    35.7835  36.4331  37.9431  38.6525  38.8193  39.9569  40.9058  41.9172
    44.8002  44.8328

     occupation numbers 
     1.0000   1.0000   1.0000   1.0000   0.0000   0.0000   0.0000   0.0000
     0.0000   0.0000   0.0000   0.0000   0.0000   0.0000   0.0000   0.0000
     0.0000   0.0000   0.0000   0.0000   0.0000   0.0000   0.0000   0.0000
     0.0000   0.0000   0.0000   0.0000   0.0000   0.0000   0.0000   0.0000
     0.0000   0.0000

          k = 0.1875-0.1875 0.3125 (  1122 PWs)   bands (ev):

    -5.1247   2.6858   5.2628   5.4801   8.6775   9.4862  10.2102  12.0774
    13.6706  14.0335  15.5571  17.7937  20.1829  21.1190  24.1247  24.3698
    25.1728  26.7961  29.6084  30.0263  32.5453  33.1626  34.5080  35.8990
    37.7328  38.7765  38.8151  40.0136  40.0984  40.5695  41.7643  43.9331
    45.4664  45.6023

     occupation numbers 
     1.0000   1.0000   1.0000   1.0000   0.0000   0.0000   0.0000   0.0000
     0.0000   0.0000   0.0000   0.0000   0.0000   0.0000   0.0000   0.0000
     0.0000   0.0000   0.0000   0.0000   0.0000   0.0000   0.0000   0.0000
     0.0000   0.0000   0.0000   0.0000   0.0000   0.0000   0.0000   0.0000
     0.0000   0.0000

          k = 0.0625-0.0625 0.1875 (  1128 PWs)   bands (ev):

    -5.6711   4.9998   5.7582   5.9349   8.6840   9.3383   9.5962  10.8188
    13.1646  14.0947  14.8911  17.3755  18.1495  18.7328  22.8496  27.3769
    27.4945  28.9959  29.5385  29.7542  32.3809  32.6816  33.1120  37.3035
    38.0298  38.6066  39.2834  40.1199  40.6579  42.7894  44.2366  44.5908
    45.3803  46.6174

     occupation numbers 
     1.0000   1.0000   1.0000   1.0000   0.0000   0.0000   0.0000   0.0000
     0.0000   0.0000   0.0000   0.0000   0.0000   0.0000   0.0000   0.0000
     0.0000   0.0000   0.0000   0.0000   0.0000   0.0000   0.0000   0.0000
     0.0000   0.0000   0.0000   0.0000   0.0000   0.0000   0.0000   0.0000
     0.0000   0.0000

          k =-0.0625 0.3125 0.0625 (  1126 PWs)   bands (ev):

    -5.3933   4.1070   5.1781   5.2777   8.2295  10.1315  10.4796  10.9951
    12.9973  14.4581  15.8339  17.7979  18.5950  19.5062  24.4500  25.6574
    25.8838  28.0055  28.4591  29.6549  32.6129  33.2894  33.8319  37.7633
    38.6481  38.7552  39.3653  39.5502  40.2147  40.5128  43.0491  43.7582
    46.0226  46.3973

     occupation numbers 
     1.0000   1.0000   1.0000   1.0000   0.0000   0.0000   0.0000   0.0000
     0.0000   0.0000   0.0000   0.0000   0.0000   0.0000   0.0000   0.0000
     0.0000   0.0000   0.0000   0.0000   0.0000   0.0000   0.0000   0.0000
     0.0000   0.0000   0.0000   0.0000   0.0000   0.0000   0.0000   0.0000
     0.0000   0.0000

          k =-0.1875 0.4375-0.0625 (  1117 PWs)   bands (ev):

    -4.8492   2.5712   4.1656   5.0102   8.3976  10.2401  10.6990  11.2816
    14.0730  15.3837  16.8366  18.2703  19.7166  21.5208  22.6332  24.4298
    26.2800  26.9178  28.0978  29.4097  32.0814  33.5237  34.5534  35.8051
    36.5143  37.9820  38.9285  39.1135  40.5789  41.4211  41.9710  42.7498
    44.3478  45.8342

     occupation numbers 
     1.0000   1.0000   1.0000   1.0000   0.0000   0.0000   0.0000   0.0000
     0.0000   0.0000   0.0000   0.0000   0.0000   0.0000   0.0000   0.0000
     0.0000   0.0000   0.0000   0.0000   0.0000   0.0000   0.0000   0.0000
     0.0000   0.0000   0.0000   0.0000   0.0000   0.0000   0.0000   0.0000
     0.0000   0.0000

          k =-0.3125 0.5625-0.1875 (  1120 PWs)   bands (ev):

    -3.9676   0.6350   3.6687   4.5779   8.5942  10.0971  11.3079  11.4898
    15.5150  16.3026  17.6338  18.6323  20.2323  21.6354  23.2180  24.5218
    25.3995  27.4724  28.7066  30.2522  30.8546  31.4075  33.6613  34.4026
    36.0848  36.4846  37.5666  37.8699  38.9751  40.6663  41.6382  42.7163
    43.3355  44.8856

     occupation numbers 
     1.0000   1.0000   1.0000   1.0000   0.0000   0.0000   0.0000   0.0000
     0.0000   0.0000   0.0000   0.0000   0.0000   0.0000   0.0000   0.0000
     0.0000   0.0000   0.0000   0.0000   0.0000   0.0000   0.0000   0.0000
     0.0000   0.0000   0.0000   0.0000   0.0000   0.0000   0.0000   0.0000
     0.0000   0.0000

          k = 0.5625-0.3125 0.6875 (  1120 PWs)   bands (ev):

    -3.1580  -0.6401   3.3739   4.4798   8.6817   9.7387  11.1246  13.5920
    14.9418  16.4030  17.9405  18.3669  20.1722  21.6640  24.9127  25.6590
    26.6192  26.9709  28.0817  28.3574  31.2884  32.5657  32.7701  33.3228
    34.3042  35.9169  36.3924  37.3198  38.5258  39.9948  41.4395  42.0426
    42.8716  44.6318

     occupation numbers 
     1.0000   1.0000   1.0000   1.0000   0.0000   0.0000   0.0000   0.0000
     0.0000   0.0000   0.0000   0.0000   0.0000   0.0000   0.0000   0.0000
     0.0000   0.0000   0.0000   0.0000   0.0000   0.0000   0.0000   0.0000
     0.0000   0.0000   0.0000   0.0000   0.0000   0.0000   0.0000   0.0000
     0.0000   0.0000

          k = 0.4375-0.1875 0.5625 (  1127 PWs)   bands (ev):

    -3.6471   0.0903   3.2887   4.7800   9.0092   9.6229  11.0745  12.8152
    14.8418  15.7395  17.7629  19.1002  20.6865  21.8937  23.0760  24.4964
    26.3224  28.1322  28.6161  29.2419  31.0758  31.6304  33.5243  33.7892
    34.9153  35.4076  36.9240  38.4799  39.1326  40.3377  41.5341  42.1447
    43.1144  45.1186

     occupation numbers 
     1.0000   1.0000   1.0000   1.0000   0.0000   0.0000   0.0000   0.0000
     0.0000   0.0000   0.0000   0.0000   0.0000   0.0000   0.0000   0.0000
     0.0000   0.0000   0.0000   0.0000   0.0000   0.0000   0.0000   0.0000
     0.0000   0.0000   0.0000   0.0000   0.0000   0.0000   0.0000   0.0000
     0.0000   0.0000

          k = 0.3125-0.0625 0.4375 (  1117 PWs)   bands (ev):

    -4.5908   1.8964   3.5818   5.3121   9.3255   9.6353  10.9582  11.3639
    13.3369  16.5455  16.8131  18.3880  20.2517  21.4751  22.7649  24.7297
    25.8894  27.2347  28.4157  29.0427  32.0623  32.7658  34.3464  35.3159
    36.4738  37.3487  37.9373  39.6107  39.9650  40.9608  41.4695  43.1810
    44.4128  45.5705

     occupation numbers 
     1.0000   1.0000   1.0000   1.0000   0.0000   0.0000   0.0000   0.0000
     0.0000   0.0000   0.0000   0.0000   0.0000   0.0000   0.0000   0.0000
     0.0000   0.0000   0.0000   0.0000   0.0000   0.0000   0.0000   0.0000
     0.0000   0.0000   0.0000   0.0000   0.0000   0.0000   0.0000   0.0000
     0.0000   0.0000

          k = 0.1875 0.0625 0.3125 (  1123 PWs)   bands (ev):

    -5.2579   3.4009   4.7596   5.7007   8.8284   9.6023  10.2751  11.4984
    13.1202  14.4147  16.0201  17.5333  19.0469  20.7595  24.1505  24.7008
    26.0783  27.7644  28.5972  29.4002  32.3350  33.4357  34.6902  36.5841
    38.1420  38.2470  39.7805  39.8734  40.4311  40.7949  42.4738  42.8586
    45.5374  45.7748

     occupation numbers 
     1.0000   1.0000   1.0000   1.0000   0.0000   0.0000   0.0000   0.0000
     0.0000   0.0000   0.0000   0.0000   0.0000   0.0000   0.0000   0.0000
     0.0000   0.0000   0.0000   0.0000   0.0000   0.0000   0.0000   0.0000
     0.0000   0.0000   0.0000   0.0000   0.0000   0.0000   0.0000   0.0000
     0.0000   0.0000

          k =-0.0625 0.5625 0.0625 (  1112 PWs)   bands (ev):

    -4.4347   2.0889   4.0225   4.1534   7.3613   9.0228  12.3892  12.5248
    15.3285  15.7135  18.1495  19.4739  19.8182  20.9843  22.7245  23.1159
    24.6833  26.2963  28.0517  31.5710  32.0128  33.1838  33.2919  35.1207
    35.5473  35.5973  36.3336  41.0033  41.3341  42.6657  43.1791  43.4870
    43.8487  43.8734

     occupation numbers 
     1.0000   1.0000   1.0000   1.0000   0.0000   0.0000   0.0000   0.0000
     0.0000   0.0000   0.0000   0.0000   0.0000   0.0000   0.0000   0.0000
     0.0000   0.0000   0.0000   0.0000   0.0000   0.0000   0.0000   0.0000
     0.0000   0.0000   0.0000   0.0000   0.0000   0.0000   0.0000   0.0000
     0.0000   0.0000

          k =-0.1875 0.6875-0.0625 (  1116 PWs)   bands (ev):

    -3.6533   0.8178   3.1909   3.7865   7.6784   8.8639  12.3352  13.5336
    16.3704  17.7704  17.8964  19.3320  20.6319  20.9402  22.5474  23.8201
    24.6792  26.1198  28.3934  29.6095  31.3373  31.3799  33.1408  33.5578
    34.8150  35.6510  37.4348  39.4825  40.0125  40.8384  41.9726  44.2261
    44.3448  44.9929

     occupation numbers 
     1.0000   1.0000   1.0000   1.0000   0.0000   0.0000   0.0000   0.0000
     0.0000   0.0000   0.0000   0.0000   0.0000   0.0000   0.0000   0.0000
     0.0000   0.0000   0.0000   0.0000   0.0000   0.0000   0.0000   0.0000
     0.0000   0.0000   0.0000   0.0000   0.0000   0.0000   0.0000   0.0000
     0.0000   0.0000

          k = 0.6875-0.1875 0.8125 (  1121 PWs)   bands (ev):

    -2.7089  -0.4357   2.3060   3.7545   7.9063  10.5837  11.8959  13.4426
    15.2869  17.1436  18.6399  19.8562  20.5602  22.9564  24.1709  24.8889
    25.3530  25.6492  26.9077  29.3920  29.7515  30.3744  31.6211  34.6773
    35.0572  35.8253  36.0577  38.0475  38.9253  40.0666  41.3518  42.5241
    44.4122  45.2357

     occupation numbers 
     1.0000   1.0000   1.0000   1.0000   0.0000   0.0000   0.0000   0.0000
     0.0000   0.0000   0.0000   0.0000   0.0000   0.0000   0.0000   0.0000
     0.0000   0.0000   0.0000   0.0000   0.0000   0.0000   0.0000   0.0000
     0.0000   0.0000   0.0000   0.0000   0.0000   0.0000   0.0000   0.0000
     0.0000   0.0000

          k = 0.5625-0.0625 0.6875 (  1124 PWs)   bands (ev):

    -2.7791  -0.3407   1.9283   4.1162   8.3345  11.3765  12.7339  12.9587
    13.5269  14.8370  19.7221  21.0519  21.6600  22.5113  23.3010  23.8946
    25.5086  26.3105  28.0954  29.2285  30.1102  31.4568  32.3140  33.7169
    34.3941  34.9350  35.9189  36.6323  39.7474  40.7883  41.2081  43.2607
    44.5200  45.1333

     occupation numbers 
     1.0000   1.0000   1.0000   1.0000   0.0000   0.0000   0.0000   0.0000
     0.0000   0.0000   0.0000   0.0000   0.0000   0.0000   0.0000   0.0000
     0.0000   0.0000   0.0000   0.0000   0.0000   0.0000   0.0000   0.0000
     0.0000   0.0000   0.0000   0.0000   0.0000   0.0000   0.0000   0.0000
     0.0000   0.0000

          k = 0.4375 0.0625 0.5625 (  1121 PWs)   bands (ev):

    -3.7199   0.6293   2.5725   4.7314   9.0273  10.2549  11.7441  11.9739
    13.8681  15.9915  18.6396  19.5002  20.3263  22.3035  23.2557  24.3295
    25.3030  27.7384  28.1157  29.9215  31.3954  31.5446  32.7131  33.8093
    34.5189  36.3878  36.7804  38.2583  39.7430  40.2598  41.9881  43.6214
    43.8645  45.1459

     occupation numbers 
     1.0000   1.0000   1.0000   1.0000   0.0000   0.0000   0.0000   0.0000
     0.0000   0.0000   0.0000   0.0000   0.0000   0.0000   0.0000   0.0000
     0.0000   0.0000   0.0000   0.0000   0.0000   0.0000   0.0000   0.0000
     0.0000   0.0000   0.0000   0.0000   0.0000   0.0000   0.0000   0.0000
     0.0000   0.0000

          k = 0.3125 0.1875 0.4375 (  1120 PWs)   bands (ev):

    -4.4718   1.2439   4.3025   5.2106   8.8033   9.6208  10.4960  12.1643
    14.1925  15.7442  16.2099  19.2473  20.4102  22.0295  22.6012  24.0514
    24.9668  28.4346  28.7559  29.8062  31.9291  32.2492  33.7433  35.9727
    36.4158  36.9680  37.9873  38.5004  39.6584  40.0144  41.4352  43.4287
    44.4645  45.6826

     occupation numbers 
     1.0000   1.0000   1.0000   1.0000   0.0000   0.0000   0.0000   0.0000
     0.0000   0.0000   0.0000   0.0000   0.0000   0.0000   0.0000   0.0000
     0.0000   0.0000   0.0000   0.0000   0.0000   0.0000   0.0000   0.0000
     0.0000   0.0000   0.0000   0.0000   0.0000   0.0000   0.0000   0.0000
     0.0000   0.0000

          k =-0.0625 0.8125 0.0625 (  1120 PWs)   bands (ev):

    -2.9776  -0.0664   3.3031   3.5405   6.9263   7.6334  14.7219  14.7248
    17.5991  17.9056  18.4749  18.5151  20.5487  21.3341  22.4295  24.0283
    24.3194  25.4066  28.3678  29.5776  29.6204  30.3834  30.9415  32.9515
    35.6990  35.8115  37.2260  40.2662  41.2375  41.4907  42.3853  42.7164
    45.8229  46.0831

     occupation numbers 
     1.0000   1.0000   1.0000   1.0000   0.0000   0.0000   0.0000   0.0000
     0.0000   0.0000   0.0000   0.0000   0.0000   0.0000   0.0000   0.0000
     0.0000   0.0000   0.0000   0.0000   0.0000   0.0000   0.0000   0.0000
     0.0000   0.0000   0.0000   0.0000   0.0000   0.0000   0.0000   0.0000
     0.0000   0.0000

          k = 0.8125-0.0625 0.9375 (  1126 PWs)   bands (ev):

    -2.0295  -1.0866   2.7025   3.2759   7.3658   8.1271  14.4502  15.5270
    16.1001  17.2910  18.8920  20.0767  20.5630  21.6801  23.0969  24.7104
    25.2297  26.4496  27.5582  27.6731  29.1197  29.5845  30.3474  31.5403
    36.2345  37.0399  38.1694  39.4658  39.5385  41.0028  41.4292  43.4185
    44.3042  45.9347

     occupation numbers 
     1.0000   1.0000   1.0000   1.0000   0.0000   0.0000   0.0000   0.0000
     0.0000   0.0000   0.0000   0.0000   0.0000   0.0000   0.0000   0.0000
     0.0000   0.0000   0.0000   0.0000   0.0000   0.0000   0.0000   0.0000
     0.0000   0.0000   0.0000   0.0000   0.0000   0.0000   0.0000   0.0000
     0.0000   0.0000

          k = 0.6875 0.0625 0.8125 (  1127 PWs)   bands (ev):

    -2.1130  -0.9262   1.9214   3.6052   7.7490  10.4318  12.8899  14.0727
    14.6177  16.0664  19.9878  21.0820  21.8422  22.1312  23.3748  23.8064
    25.5727  26.1088  27.4124  28.5141  29.2202  30.1497  31.2829  33.0744
    35.3014  35.5780  36.7791  37.7157  39.8123  40.3482  41.4690  42.6486
    44.1540  45.7763

     occupation numbers 
     1.0000   1.0000   1.0000   1.0000   0.0000   0.0000   0.0000   0.0000
     0.0000   0.0000   0.0000   0.0000   0.0000   0.0000   0.0000   0.0000
     0.0000   0.0000   0.0000   0.0000   0.0000   0.0000   0.0000   0.0000
     0.0000   0.0000   0.0000   0.0000   0.0000   0.0000   0.0000   0.0000
     0.0000   0.0000

          k = 0.5625 0.1875 0.6875 (  1125 PWs)   bands (ev):

    -2.8941  -0.5653   2.5412   4.2354   8.4686  10.5105  12.1093  13.3439
    13.9466  15.8684  18.3309  19.7638  21.6487  22.1963  23.7032  25.1646
    26.0765  26.7320  27.5613  28.4761  31.4025  32.2126  32.3426  32.6736
    34.3814  35.3790  36.3961  37.4467  38.9338  39.6791  41.6578  42.4589
    43.6103  44.5650

     occupation numbers 
     1.0000   1.0000   1.0000   1.0000   0.0000   0.0000   0.0000   0.0000
     0.0000   0.0000   0.0000   0.0000   0.0000   0.0000   0.0000   0.0000
     0.0000   0.0000   0.0000   0.0000   0.0000   0.0000   0.0000   0.0000
     0.0000   0.0000   0.0000   0.0000   0.0000   0.0000   0.0000   0.0000
     0.0000   0.0000

          k = 0.4375 0.3125 0.5625 (  1124 PWs)   bands (ev):

    -3.5304  -0.4457   4.1318   4.8597   8.6141   9.4584  10.2944  13.8891
    15.0868  16.2346  17.5759  18.4751  19.3180  21.1373  23.9917  25.7034
    27.1874  27.7005  28.8567  29.0609  31.3865  31.7799  33.5177  33.7947
    34.4459  36.0175  37.0360  37.5043  39.2101  40.0327  40.4496  41.1974
    43.8215  45.1457

     occupation numbers 
     1.0000   1.0000   1.0000   1.0000   0.0000   0.0000   0.0000   0.0000
     0.0000   0.0000   0.0000   0.0000   0.0000   0.0000   0.0000   0.0000
     0.0000   0.0000   0.0000   0.0000   0.0000   0.0000   0.0000   0.0000
     0.0000   0.0000   0.0000   0.0000   0.0000   0.0000   0.0000   0.0000
     0.0000   0.0000

          k =-0.0625-0.9375 0.0625 (  1124 PWs)   bands (ev):

    -2.0872  -1.1080   3.1597   3.4154   6.9068   7.2798  15.8271  15.9039
    17.2703  17.3270  18.7429  19.1634  20.0000  20.1529  23.9779  25.3451
    25.5778  25.7802  27.2527  27.5681  28.1553  28.9265  31.1274  32.0635
    35.9229  36.3648  39.1427  40.3443  40.7776  41.4386  42.2516  42.3030
    45.3586  45.6437

     occupation numbers 
     1.0000   1.0000   1.0000   1.0000   0.0000   0.0000   0.0000   0.0000
     0.0000   0.0000   0.0000   0.0000   0.0000   0.0000   0.0000   0.0000
     0.0000   0.0000   0.0000   0.0000   0.0000   0.0000   0.0000   0.0000
     0.0000   0.0000   0.0000   0.0000   0.0000   0.0000   0.0000   0.0000
     0.0000   0.0000

          k =-0.1875-0.8125-0.0625 (  1118 PWs)   bands (ev):

    -2.8858  -0.1305   2.8698   3.4414   7.4677   8.3763  13.3616  14.7212
    16.8653  17.5603  18.5757  19.2469  20.9044  21.5872  22.5824  23.7963
    25.5917  25.9637  27.5821  28.8121  29.7097  30.5827  31.1878  32.9514
    35.7373  35.9392  38.0308  39.2667  39.6784  40.6090  41.3721  44.1152
    44.3841  45.9109

     occupation numbers 
     1.0000   1.0000   1.0000   1.0000   0.0000   0.0000   0.0000   0.0000
     0.0000   0.0000   0.0000   0.0000   0.0000   0.0000   0.0000   0.0000
     0.0000   0.0000   0.0000   0.0000   0.0000   0.0000   0.0000   0.0000
     0.0000   0.0000   0.0000   0.0000   0.0000   0.0000   0.0000   0.0000
     0.0000   0.0000

          k =-0.3125-0.6875-0.1875 (  1120 PWs)   bands (ev):

    -3.3670   0.0883   2.9558   4.0689   8.2061  10.7632  11.1158  12.3368
    16.2753  16.9461  18.0538  19.1070  19.4669  22.3995  24.1302  24.8295
    25.4038  26.7464  27.3652  29.3351  30.2932  32.0247  32.8199  33.6892
    35.5833  36.1180  36.6561  37.7585  38.7618  40.1230  42.1800  42.5258
    43.4037  44.4789

     occupation numbers 
     1.0000   1.0000   1.0000   1.0000   0.0000   0.0000   0.0000   0.0000
     0.0000   0.0000   0.0000   0.0000   0.0000   0.0000   0.0000   0.0000
     0.0000   0.0000   0.0000   0.0000   0.0000   0.0000   0.0000   0.0000
     0.0000   0.0000   0.0000   0.0000   0.0000   0.0000   0.0000   0.0000
     0.0000   0.0000

          k =-0.0625-0.6875 0.0625 (  1117 PWs)   bands (ev):

    -3.7643   1.0108   3.5904   3.7884   7.0760   8.2241  13.5414  13.6073
    16.5850  16.6698  18.9168  19.6009  20.3222  21.3229  22.3234  23.2196
    23.3978  25.4961  29.2018  30.3665  31.6152  31.6413  32.8576  33.9038
    34.3026  35.4213  36.1774  40.6841  41.5234  41.9918  42.7083  42.9235
    45.2583  45.3756

     occupation numbers 
     1.0000   1.0000   1.0000   1.0000   0.0000   0.0000   0.0000   0.0000
     0.0000   0.0000   0.0000   0.0000   0.0000   0.0000   0.0000   0.0000
     0.0000   0.0000   0.0000   0.0000   0.0000   0.0000   0.0000   0.0000
     0.0000   0.0000   0.0000   0.0000   0.0000   0.0000   0.0000   0.0000
     0.0000   0.0000

          k =-0.1875-0.5625-0.0625 (  1117 PWs)   bands (ev):

    -4.3117   1.7194   3.6340   4.3234   7.9953   9.5709  11.3736  12.3781
    15.1858  16.5859  17.6313  19.1036  20.2144  21.5418  21.9397  23.8250
    25.3395  26.9012  27.7647  30.9217  31.5082  32.1822  33.5568  34.9181
    35.6588  36.6512  37.3721  39.4718  40.3893  41.3185  42.7132  43.1506
    43.9953  44.8678

     occupation numbers 
     1.0000   1.0000   1.0000   1.0000   0.0000   0.0000   0.0000   0.0000
     0.0000   0.0000   0.0000   0.0000   0.0000   0.0000   0.0000   0.0000
     0.0000   0.0000   0.0000   0.0000   0.0000   0.0000   0.0000   0.0000
     0.0000   0.0000   0.0000   0.0000   0.0000   0.0000   0.0000   0.0000
     0.0000   0.0000

          k =-0.0625-0.4375 0.0625 (  1122 PWs)   bands (ev):

    -4.9797   3.1310   4.5956   4.6244   7.7603   9.9629  11.3023  11.4761
    14.0201  15.0003  16.9801  18.5215  19.2206  20.2759  24.0228  24.2901
    26.3221  26.3659  27.3863  30.3295  32.5978  33.6321  34.0327  36.1944
    36.8944  37.5242  38.2464  40.4172  40.9426  41.6679  42.3390  43.2215
    44.9164  44.9622

     occupation numbers 
     1.0000   1.0000   1.0000   1.0000   0.0000   0.0000   0.0000   0.0000
     0.0000   0.0000   0.0000   0.0000   0.0000   0.0000   0.0000   0.0000
     0.0000   0.0000   0.0000   0.0000   0.0000   0.0000   0.0000   0.0000
     0.0000   0.0000   0.0000   0.0000   0.0000   0.0000   0.0000   0.0000
     0.0000   0.0000

          k =-0.1875 0.1875 0.1875 (  1122 PWs)   bands (ev):

    -5.3963   3.4741   5.7501   5.7501   8.5684   9.6259   9.6259  12.1762
    13.3794  13.3794  15.3541  17.0674  19.9040  19.9040  23.9655  25.8513
    25.8513  26.5106  30.3128  30.3128  32.6059  32.6059  34.1817  36.9103
    37.0748  39.6926  39.6926  40.2098  40.2098  41.6576  41.6576  44.8106
    44.8106  45.1761

     occupation numbers 
     1.0000   1.0000   1.0000   1.0000   0.0000   0.0000   0.0000   0.0000
     0.0000   0.0000   0.0000   0.0000   0.0000   0.0000   0.0000   0.0000
     0.0000   0.0000   0.0000   0.0000   0.0000   0.0000   0.0000   0.0000
     0.0000   0.0000   0.0000   0.0000   0.0000   0.0000   0.0000   0.0000
     0.0000   0.0000

          k =-0.3125 0.3125 0.0625 (  1123 PWs)   bands (ev):

    -4.9890   2.6352   4.1596   5.7791   9.2392   9.7476  10.0228  12.1024
    12.5101  15.3055  16.3472  17.8575  19.6574  22.0808  22.5467  24.9446
    26.3278  27.1592  28.1469  29.2253  32.8412  33.0056  34.9556  35.8198
    37.5549  37.6024  38.7035  40.3187  40.4057  40.8585  41.6039  42.8134
    45.6183  45.6720

     occupation numbers 
     1.0000   1.0000   1.0000   1.0000   0.0000   0.0000   0.0000   0.0000
     0.0000   0.0000   0.0000   0.0000   0.0000   0.0000   0.0000   0.0000
     0.0000   0.0000   0.0000   0.0000   0.0000   0.0000   0.0000   0.0000
     0.0000   0.0000   0.0000   0.0000   0.0000   0.0000   0.0000   0.0000
     0.0000   0.0000

          k =-0.4375 0.4375-0.0625 (  1121 PWs)   bands (ev):

    -4.2107   1.2390   3.0277   5.2532   9.0167  10.5183  10.6918  12.3886
    12.6246  16.6782  17.9673  18.4988  20.0338  21.9747  23.3960  24.1966
    25.8274  27.4775  28.2279  29.6645  31.4617  32.4844  33.7962  34.5723
    35.1747  36.5459  37.3413  38.9424  40.1822  40.6829  42.1026  43.5623
    44.4973  45.1237

     occupation numbers 
     1.0000   1.0000   1.0000   1.0000   0.0000   0.0000   0.0000   0.0000
     0.0000   0.0000   0.0000   0.0000   0.0000   0.0000   0.0000   0.0000
     0.0000   0.0000   0.0000   0.0000   0.0000   0.0000   0.0000   0.0000
     0.0000   0.0000   0.0000   0.0000   0.0000   0.0000   0.0000   0.0000
     0.0000   0.0000

          k = 0.4375-0.4375 0.8125 (  1126 PWs)   bands (ev):

    -3.2675  -0.3278   2.8900   4.6980   8.4560  10.6867  10.8811  14.2450
    14.3318  14.6961  17.7447  20.6381  21.0049  21.2764  23.0354  25.5631
    26.2834  27.3887  28.3363  28.8522  31.0081  32.6951  33.3792  33.4384
    33.5425  34.7008  36.1011  38.2890  39.2544  40.3027  41.9846  42.3005
    43.4506  43.9179

     occupation numbers 
     1.0000   1.0000   1.0000   1.0000   0.0000   0.0000   0.0000   0.0000
     0.0000   0.0000   0.0000   0.0000   0.0000   0.0000   0.0000   0.0000
     0.0000   0.0000   0.0000   0.0000   0.0000   0.0000   0.0000   0.0000
     0.0000   0.0000   0.0000   0.0000   0.0000   0.0000   0.0000   0.0000
     0.0000   0.0000

          k = 0.3125-0.3125 0.6875 (  1123 PWs)   bands (ev):

    -3.2523  -0.3562   3.2092   4.3637   8.1471  10.7782  11.2325  12.2433
    15.9415  16.8674  18.2864  18.3452  19.0782  22.9553  24.2335  25.1754
    26.4926  26.7162  27.1016  29.4278  30.2274  32.7753  32.9914  33.8506
    34.4388  35.8583  36.7750  37.2075  38.2988  40.5111  41.8855  42.4207
    43.4036  43.5749

     occupation numbers 
     1.0000   1.0000   1.0000   1.0000   0.0000   0.0000   0.0000   0.0000
     0.0000   0.0000   0.0000   0.0000   0.0000   0.0000   0.0000   0.0000
     0.0000   0.0000   0.0000   0.0000   0.0000   0.0000   0.0000   0.0000
     0.0000   0.0000   0.0000   0.0000   0.0000   0.0000   0.0000   0.0000
     0.0000   0.0000

          k = 0.1875-0.1875 0.5625 (  1113 PWs)   bands (ev):

    -4.1947   1.2341   3.8451   4.3341   8.0804  10.3321  11.0766  11.6405
    16.0896  16.3499  16.8624  19.6906  19.7296  21.4486  22.5697  23.9121
    25.9460  26.6299  28.2022  30.6272  30.9268  32.2801  33.5170  34.9280
    35.8383  36.7496  37.7340  38.4811  39.3829  41.2276  42.3482  43.6305
    43.9395  43.9848

     occupation numbers 
     1.0000   1.0000   1.0000   1.0000   0.0000   0.0000   0.0000   0.0000
     0.0000   0.0000   0.0000   0.0000   0.0000   0.0000   0.0000   0.0000
     0.0000   0.0000   0.0000   0.0000   0.0000   0.0000   0.0000   0.0000
     0.0000   0.0000   0.0000   0.0000   0.0000   0.0000   0.0000   0.0000
     0.0000   0.0000

          k =-0.1875 0.4375 0.1875 (  1116 PWs)   bands (ev):

    -4.7221   1.9415   4.7165   4.7685   8.5231  10.0274  10.8884  11.1603
    14.9479  14.9595  16.0937  18.8161  20.3508  21.8012  22.7832  23.5407
    25.6869  27.9680  28.1847  29.5371  32.2957  33.2058  33.6522  36.2923
    37.0197  37.2092  38.6599  38.9850  39.9135  40.1428  41.9748  43.9698
    44.9988  45.0105

     occupation numbers 
     1.0000   1.0000   1.0000   1.0000   0.0000   0.0000   0.0000   0.0000
     0.0000   0.0000   0.0000   0.0000   0.0000   0.0000   0.0000   0.0000
     0.0000   0.0000   0.0000   0.0000   0.0000   0.0000   0.0000   0.0000
     0.0000   0.0000   0.0000   0.0000   0.0000   0.0000   0.0000   0.0000
     0.0000   0.0000

          k =-0.3125 0.5625 0.0625 (  1123 PWs)   bands (ev):

    -4.0702   1.1855   3.0877   4.5643   9.0118  10.1308  10.5406  12.1803
    14.5588  17.0001  17.9668  18.7553  20.2095  21.7887  22.3828  25.0294
    25.3046  26.9324  28.0672  30.8238  30.9648  31.3056  33.1717  34.5648
    35.4652  37.5693  38.1601  38.3542  38.9901  40.1388  41.9889  43.0409
    44.2634  45.3056

     occupation numbers 
     1.0000   1.0000   1.0000   1.0000   0.0000   0.0000   0.0000   0.0000
     0.0000   0.0000   0.0000   0.0000   0.0000   0.0000   0.0000   0.0000
     0.0000   0.0000   0.0000   0.0000   0.0000   0.0000   0.0000   0.0000
     0.0000   0.0000   0.0000   0.0000   0.0000   0.0000   0.0000   0.0000
     0.0000   0.0000

          k = 0.5625-0.3125 0.9375 (  1123 PWs)   bands (ev):

    -3.1370   0.0605   2.2524   3.9594   9.4619   9.9737  11.2865  13.2846
    14.8052  15.3572  19.3187  20.6458  21.0507  21.3095  23.7199  24.5385
    25.2725  27.2975  27.9584  28.9027  30.2732  30.8007  32.9347  34.0505
    34.3771  35.7210  37.3179  37.6575  38.0883  40.0459  40.8388  43.4864
    44.4016  45.9063

     occupation numbers 
     1.0000   1.0000   1.0000   1.0000   0.0000   0.0000   0.0000   0.0000
     0.0000   0.0000   0.0000   0.0000   0.0000   0.0000   0.0000   0.0000
     0.0000   0.0000   0.0000   0.0000   0.0000   0.0000   0.0000   0.0000
     0.0000   0.0000   0.0000   0.0000   0.0000   0.0000   0.0000   0.0000
     0.0000   0.0000

          k = 0.4375-0.1875 0.8125 (  1123 PWs)   bands (ev):

    -2.6196  -0.5907   2.2676   3.6270   8.9653  10.3079  12.0824  13.4767
    13.6739  17.3422  18.3290  19.5322  22.0730  23.2997  23.5953  24.5862
    25.1664  26.3381  27.9364  28.0590  29.9618  31.3992  32.2148  33.3345
    34.8581  36.1004  36.5446  37.5607  38.3071  39.2073  40.5180  42.7044
    44.5311  45.9393

     occupation numbers 
     1.0000   1.0000   1.0000   1.0000   0.0000   0.0000   0.0000   0.0000
     0.0000   0.0000   0.0000   0.0000   0.0000   0.0000   0.0000   0.0000
     0.0000   0.0000   0.0000   0.0000   0.0000   0.0000   0.0000   0.0000
     0.0000   0.0000   0.0000   0.0000   0.0000   0.0000   0.0000   0.0000
     0.0000   0.0000

          k = 0.3125-0.0625 0.6875 (  1118 PWs)   bands (ev):

    -3.4387   0.4733   2.7029   3.8180   8.6970   9.9037  10.9128  13.4368
    15.9070  16.3253  19.1884  19.3890  20.6499  20.9769  23.2560  24.2263
    25.9368  26.8740  27.7001  28.9392  30.4700  30.9893  33.3317  33.6467
    35.1781  36.1620  37.6562  38.7464  38.9957  39.2276  40.9452  43.7241
    44.3334  45.6798

     occupation numbers 
     1.0000   1.0000   1.0000   1.0000   0.0000   0.0000   0.0000   0.0000
     0.0000   0.0000   0.0000   0.0000   0.0000   0.0000   0.0000   0.0000
     0.0000   0.0000   0.0000   0.0000   0.0000   0.0000   0.0000   0.0000
     0.0000   0.0000   0.0000   0.0000   0.0000   0.0000   0.0000   0.0000
     0.0000   0.0000

          k =-0.1875 0.6875 0.1875 (  1120 PWs)   bands (ev):

    -3.5535   0.5209   3.0617   3.9912   7.6630   9.7484  12.2055  12.4769
    17.3425  17.3435  17.8684  18.4194  19.8632  21.8085  23.1767  24.8163
    25.2311  25.8242  27.8633  29.1433  31.2411  32.1148  32.5569  33.5243
    35.5490  35.7500  37.5285  38.1115  39.0844  41.2359  42.9574  43.0945
    43.6379  44.1331

     occupation numbers 
     1.0000   1.0000   1.0000   1.0000   0.0000   0.0000   0.0000   0.0000
     0.0000   0.0000   0.0000   0.0000   0.0000   0.0000   0.0000   0.0000
     0.0000   0.0000   0.0000   0.0000   0.0000   0.0000   0.0000   0.0000
     0.0000   0.0000   0.0000   0.0000   0.0000   0.0000   0.0000   0.0000
     0.0000   0.0000

          k = 0.6875-0.1875 1.0625 (  1118 PWs)   bands (ev):

    -2.7151  -0.2765   2.4395   3.2486   8.4718   9.5003  11.8095  14.7073
    15.1767  17.2386  18.8993  20.5265  21.1121  21.2873  23.3788  24.2639
    26.0251  26.8192  27.0478  28.2448  29.5030  29.8859  31.8665  34.0657
    35.3507  36.0283  37.4155  38.2972  38.9939  39.0472  40.8888  43.5326
    45.0165  45.7201

     occupation numbers 
     1.0000   1.0000   1.0000   1.0000   0.0000   0.0000   0.0000   0.0000
     0.0000   0.0000   0.0000   0.0000   0.0000   0.0000   0.0000   0.0000
     0.0000   0.0000   0.0000   0.0000   0.0000   0.0000   0.0000   0.0000
     0.0000   0.0000   0.0000   0.0000   0.0000   0.0000   0.0000   0.0000
     0.0000   0.0000

          k = 0.5625-0.0625 0.9375 (  1126 PWs)   bands (ev):

    -1.8661  -1.0503   2.0919   2.7119   9.6192  10.5445  11.3678  12.3669
    15.9846  17.4406  18.8574  20.3801  21.9558  23.4254  23.9075  24.6271
    25.3211  25.9927  26.2084  27.2929  29.3635  30.7494  32.3705  34.0125
    34.5657  35.4514  36.2159  37.0021  38.4435  38.9805  42.4909  43.6374
    44.6915  45.3462

     occupation numbers 
     1.0000   1.0000   1.0000   1.0000   0.0000   0.0000   0.0000   0.0000
     0.0000   0.0000   0.0000   0.0000   0.0000   0.0000   0.0000   0.0000
     0.0000   0.0000   0.0000   0.0000   0.0000   0.0000   0.0000   0.0000
     0.0000   0.0000   0.0000   0.0000   0.0000   0.0000   0.0000   0.0000
     0.0000   0.0000

          k = 0.4375 0.0625 0.8125 (  1122 PWs)   bands (ev):

    -2.4945  -0.4964   2.0932   3.2165   9.7151  10.1756  11.0098  13.5395
    14.6810  16.8343  19.2717  20.5349  21.5287  22.5280  23.1862  25.2360
    25.4712  26.4552  27.0412  27.9074  29.4047  30.8246  32.1006  34.3714
    35.2764  35.8428  36.2457  36.9983  38.3409  38.7666  41.3809  43.4338
    44.7338  45.9781

     occupation numbers 
     1.0000   1.0000   1.0000   1.0000   0.0000   0.0000   0.0000   0.0000
     0.0000   0.0000   0.0000   0.0000   0.0000   0.0000   0.0000   0.0000
     0.0000   0.0000   0.0000   0.0000   0.0000   0.0000   0.0000   0.0000
     0.0000   0.0000   0.0000   0.0000   0.0000   0.0000   0.0000   0.0000
     0.0000   0.0000

          k =-0.1875-1.0625 0.1875 (  1128 PWs)   bands (ev):

    -2.0426  -1.0393   2.2059   3.6365   7.1941   9.1817  14.3668  14.5887
    15.7938  15.8638  20.1342  20.3156  21.6010  21.8550  22.4586  24.0421
    25.9587  26.5079  27.2816  28.2728  28.9555  29.6657  30.5395  32.1431
    35.9232  36.6168  37.6969  37.9970  40.6532  40.9922  41.7113  42.5620
    43.4670  45.4151

     occupation numbers 
     1.0000   1.0000   1.0000   1.0000   0.0000   0.0000   0.0000   0.0000
     0.0000   0.0000   0.0000   0.0000   0.0000   0.0000   0.0000   0.0000
     0.0000   0.0000   0.0000   0.0000   0.0000   0.0000   0.0000   0.0000
     0.0000   0.0000   0.0000   0.0000   0.0000   0.0000   0.0000   0.0000
     0.0000   0.0000

          k =-0.3125-0.9375 0.0625 (  1123 PWs)   bands (ev):

    -1.9388  -1.0616   2.3051   2.9490   8.3553   9.2998  12.8266  13.9608
    15.9860  17.3712  18.8737  20.2715  22.0137  22.5713  23.3094  24.2136
    24.8166  26.3734  27.2957  28.0915  29.3785  30.1413  30.6075  32.1814
    35.9245  36.9703  37.5966  37.7307  38.8304  38.9962  42.2483  43.3953
    44.6035  45.3079

     occupation numbers 
     1.0000   1.0000   1.0000   1.0000   0.0000   0.0000   0.0000   0.0000
     0.0000   0.0000   0.0000   0.0000   0.0000   0.0000   0.0000   0.0000
     0.0000   0.0000   0.0000   0.0000   0.0000   0.0000   0.0000   0.0000
     0.0000   0.0000   0.0000   0.0000   0.0000   0.0000   0.0000   0.0000
     0.0000   0.0000

          k =-0.1875-0.8125 0.1875 (  1120 PWs)   bands (ev):

    -2.8177  -0.2452   2.4940   3.7559   7.3553   9.3676  13.3847  13.4040
    16.8849  17.0401  18.7432  19.2236  20.5654  22.4514  22.9226  25.1636
    25.1684  25.8907  26.7766  29.1100  30.1828  30.4886  30.8154  33.8439
    35.4072  35.7475  37.8380  38.5048  38.7597  41.0678  42.1750  42.7244
    43.7631  45.8222

     occupation numbers 
     1.0000   1.0000   1.0000   1.0000   0.0000   0.0000   0.0000   0.0000
     0.0000   0.0000   0.0000   0.0000   0.0000   0.0000   0.0000   0.0000
     0.0000   0.0000   0.0000   0.0000   0.0000   0.0000   0.0000   0.0000
     0.0000   0.0000   0.0000   0.0000   0.0000   0.0000   0.0000   0.0000
     0.0000   0.0000

          k =-0.3125 0.3125 0.3125 (  1125 PWs)   bands (ev):

    -4.6084   1.1988   5.3279   5.3279   8.1095   9.8248   9.8248  14.0284
    14.0737  14.0737  15.1957  19.4780  21.3464  21.3464  23.3981  23.8538
    23.8538  27.6992  30.4364  30.4364  32.2882  32.9520  32.9520  36.0228
    36.7130  36.7130  37.7780  39.2931  39.2931  40.6515  40.6515  43.0058
    44.7213  45.4797

     occupation numbers 
     1.0000   1.0000   1.0000   1.0000   0.0000   0.0000   0.0000   0.0000
     0.0000   0.0000   0.0000   0.0000   0.0000   0.0000   0.0000   0.0000
     0.0000   0.0000   0.0000   0.0000   0.0000   0.0000   0.0000   0.0000
     0.0000   0.0000   0.0000   0.0000   0.0000   0.0000   0.0000   0.0000
     0.0000   0.0000

          k =-0.4375 0.4375 0.1875 (  1124 PWs)   bands (ev):

    -4.1074   0.6146   3.7978   5.2400   8.8158  10.0311  10.0995  13.3940
    13.4602  15.8013  17.6076  18.5252  20.7961  22.0805  22.6968  23.7998
    25.8725  28.7564  28.8993  29.9308  30.6289  32.2028  33.5981  34.9499
    35.7333  36.0098  37.3870  38.1944  40.2539  40.4513  40.6727  42.4342
    44.2041  45.3004

     occupation numbers 
     1.0000   1.0000   1.0000   1.0000   0.0000   0.0000   0.0000   0.0000
     0.0000   0.0000   0.0000   0.0000   0.0000   0.0000   0.0000   0.0000
     0.0000   0.0000   0.0000   0.0000   0.0000   0.0000   0.0000   0.0000
     0.0000   0.0000   0.0000   0.0000   0.0000   0.0000   0.0000   0.0000
     0.0000   0.0000

          k = 0.4375-0.4375 1.0625 (  1123 PWs)   bands (ev):

    -3.2790   0.1136   2.1690   4.6300   8.3591  11.5620  11.7002  13.1856
    13.3201  14.7021  19.0246  20.7807  21.0246  22.6441  22.9262  24.4951
    24.8121  27.0602  29.0578  29.4379  30.7925  32.0808  32.5694  33.0327
    34.3858  35.1166  35.9054  37.0176  40.6655  40.8505  42.3193  43.1506
    44.0523  44.6148

     occupation numbers 
     1.0000   1.0000   1.0000   1.0000   0.0000   0.0000   0.0000   0.0000
     0.0000   0.0000   0.0000   0.0000   0.0000   0.0000   0.0000   0.0000
     0.0000   0.0000   0.0000   0.0000   0.0000   0.0000   0.0000   0.0000
     0.0000   0.0000   0.0000   0.0000   0.0000   0.0000   0.0000   0.0000
     0.0000   0.0000

          k = 0.3125-0.3125 0.9375 (  1129 PWs)   bands (ev):

    -2.4153  -0.6790   1.7994   4.0582   7.6910  11.6777  12.8642  13.1824
    14.4066  14.4460  20.3674  21.4402  21.4737  22.4406  23.2966  24.2883
    24.6809  26.2966  28.2083  28.6784  29.7234  30.3485  32.4342  33.9012
    34.2485  35.2813  35.8938  36.3416  40.9183  41.0275  41.6845  42.2040
    43.9375  44.8814

     occupation numbers 
     1.0000   1.0000   1.0000   1.0000   0.0000   0.0000   0.0000   0.0000
     0.0000   0.0000   0.0000   0.0000   0.0000   0.0000   0.0000   0.0000
     0.0000   0.0000   0.0000   0.0000   0.0000   0.0000   0.0000   0.0000
     0.0000   0.0000   0.0000   0.0000   0.0000   0.0000   0.0000   0.0000
     0.0000   0.0000

          k =-0.3125 0.5625 0.3125 (  1123 PWs)   bands (ev):

    -3.7762   0.0307   4.1619   4.6469   8.4605   9.8531  10.5861  12.6529
    15.4265  16.6745  17.3540  18.4900  19.2591  22.0589  23.5973  24.5304
    26.0965  28.4146  28.5118  30.0454  30.9682  31.1816  33.8071  34.7656
    35.0039  36.5472  36.7891  37.4244  39.4866  40.1558  40.9197  41.5920
    44.2061  44.4870

     occupation numbers 
     1.0000   1.0000   1.0000   1.0000   0.0000   0.0000   0.0000   0.0000
     0.0000   0.0000   0.0000   0.0000   0.0000   0.0000   0.0000   0.0000
     0.0000   0.0000   0.0000   0.0000   0.0000   0.0000   0.0000   0.0000
     0.0000   0.0000   0.0000   0.0000   0.0000   0.0000   0.0000   0.0000
     0.0000   0.0000

          k = 0.5625-0.3125 1.1875 (  1127 PWs)   bands (ev):

    -3.1265  -0.3138   2.7789   4.1352   9.2245   9.5663  12.2500  12.3709
    14.8571  16.3462  18.0432  19.5133  20.6333  22.7033  23.5216  25.2825
    25.6405  26.9924  27.9705  28.9111  30.4188  31.8585  32.6651  33.9020
    34.3328  35.4785  37.1168  37.8596  38.6893  39.2808  41.4233  42.1282
    43.3547  45.6443

     occupation numbers 
     1.0000   1.0000   1.0000   1.0000   0.0000   0.0000   0.0000   0.0000
     0.0000   0.0000   0.0000   0.0000   0.0000   0.0000   0.0000   0.0000
     0.0000   0.0000   0.0000   0.0000   0.0000   0.0000   0.0000   0.0000
     0.0000   0.0000   0.0000   0.0000   0.0000   0.0000   0.0000   0.0000
     0.0000   0.0000

          k = 0.4375-0.1875 1.0625 (  1119 PWs)   bands (ev):

    -2.2734  -0.7349   1.8957   3.3788   8.8275  11.1287  11.9869  12.5548
    14.6341  16.4204  19.6634  20.6681  21.8778  22.8476  23.7210  24.4440
    25.2920  25.7823  27.5051  28.0944  29.1552  31.3173  32.7754  33.2058
    34.2601  35.0980  37.0673  37.5606  38.2419  39.0269  41.4832  43.4468
    45.0520  45.5392

     occupation numbers 
     1.0000   1.0000   1.0000   1.0000   0.0000   0.0000   0.0000   0.0000
     0.0000   0.0000   0.0000   0.0000   0.0000   0.0000   0.0000   0.0000
     0.0000   0.0000   0.0000   0.0000   0.0000   0.0000   0.0000   0.0000
     0.0000   0.0000   0.0000   0.0000   0.0000   0.0000   0.0000   0.0000
     0.0000   0.0000

          k =-0.3125-1.1875 0.3125 (  1121 PWs)   bands (ev):

    -2.7485  -0.5916   2.3513   4.1623   7.8516  11.6271  12.0237  12.2243
    15.4743  15.5629  18.9353  19.8927  20.3976  23.6762  24.4708  24.7340
    24.7890  26.5120  27.0373  28.6981  30.9669  31.3963  31.7440  34.0786
    34.5587  35.8289  35.9408  36.9902  38.7718  40.6120  42.1061  42.4307
    43.6769  44.5362

     occupation numbers 
     1.0000   1.0000   1.0000   1.0000   0.0000   0.0000   0.0000   0.0000
     0.0000   0.0000   0.0000   0.0000   0.0000   0.0000   0.0000   0.0000
     0.0000   0.0000   0.0000   0.0000   0.0000   0.0000   0.0000   0.0000
     0.0000   0.0000   0.0000   0.0000   0.0000   0.0000   0.0000   0.0000
     0.0000   0.0000

          k =-0.4375 0.4375 0.4375 (  1131 PWs)   bands (ev):

    -3.6679  -0.5194   5.1037   5.1037   7.8542   9.6513   9.6513  13.9667
    16.0173  16.0173  16.9944  18.7866  18.7866  19.8748  24.1703  26.5933
    26.5933  28.0673  29.5048  29.5048  31.0979  33.1434  33.1434  33.8988
    33.8988  35.5024  38.4905  38.6871  38.6871  39.7048  39.7048  40.2988
    43.7138  43.8086

     occupation numbers 
     1.0000   1.0000   1.0000   1.0000   0.0000   0.0000   0.0000   0.0000
     0.0000   0.0000   0.0000   0.0000   0.0000   0.0000   0.0000   0.0000
     0.0000   0.0000   0.0000   0.0000   0.0000   0.0000   0.0000   0.0000
     0.0000   0.0000   0.0000   0.0000   0.0000   0.0000   0.0000   0.0000
     0.0000   0.0000

          k = 0.4375-0.4375 1.3125 (  1122 PWs)   bands (ev):

    -3.2972  -0.6948   3.8288   4.8202   8.5187   9.8090  10.2538  14.4884
    15.1889  15.6210  17.2787  19.3119  19.7196  20.3686  24.8083  26.3631
    27.0851  27.4336  28.2495  28.4639  31.7018  32.2997  32.7256  33.9991
    34.1054  35.5150  36.7211  37.0085  39.5291  40.0132  40.6756  41.1795
    43.8372  44.6289

     occupation numbers 
     1.0000   1.0000   1.0000   1.0000   0.0000   0.0000   0.0000   0.0000
     0.0000   0.0000   0.0000   0.0000   0.0000   0.0000   0.0000   0.0000
     0.0000   0.0000   0.0000   0.0000   0.0000   0.0000   0.0000   0.0000
     0.0000   0.0000   0.0000   0.0000   0.0000   0.0000   0.0000   0.0000
     0.0000   0.0000

     highest occupied, lowest unoccupied level (ev):     6.2053    6.9068

!    total energy              =     -15.89240387 Ry
     estimated scf accuracy    <          3.1E-13 Ry

     The total energy is the sum of the following terms:
     one-electron contribution =       4.81703132 Ry
     hartree contribution      =       1.07069086 Ry
     xc contribution           =      -4.82141413 Ry
     ewald contribution        =     -16.95871192 Ry

     convergence has been achieved in   6 iterations

     Forces acting on atoms (cartesian axes, Ry/au):

     atom    1 type  1   force =     0.00000000    0.00000000    0.00000000
     atom    2 type  1   force =     0.00000000    0.00000000    0.00000000
     The non-local contrib.  to forces
     atom    1 type  1   force =     0.00000000    0.00000000   -0.00000000
     atom    2 type  1   force =     0.00000000   -0.00000000    0.00000000
     The ionic contribution  to forces
     atom    1 type  1   force =     0.00000000    0.00000000    0.00000000
     atom    2 type  1   force =    -0.00000000    0.00000000   -0.00000000
     The local contribution  to forces
     atom    1 type  1   force =     0.00000000   -0.00000000   -0.00000000
     atom    2 type  1   force =    -0.00000000    0.00000000    0.00000000
     The core correction contribution to forces
     atom    1 type  1   force =     0.00000000    0.00000000    0.00000000
     atom    2 type  1   force =     0.00000000    0.00000000    0.00000000
     The Hubbard contrib.    to forces
     atom    1 type  1   force =     0.00000000    0.00000000    0.00000000
     atom    2 type  1   force =     0.00000000    0.00000000    0.00000000
     The SCF correction term to forces
     atom    1 type  1   force =    -0.00000000    0.00000000    0.00000000
     atom    2 type  1   force =     0.00000000   -0.00000000    0.00000000

     Total force =     0.000000     Total SCF correction =     0.000000


     Computing stress (Cartesian axis) and pressure

          total   stress  (Ry/bohr**3)                   (kbar)     P=        0.02
   0.00000014   0.00000000   0.00000000            0.02        0.00        0.00
   0.00000000   0.00000014   0.00000000            0.00        0.02        0.00
   0.00000000   0.00000000   0.00000014            0.00        0.00        0.02

     kinetic stress (kbar)   2284.90      0.00     -0.00
                                0.00   2284.90      0.00
                               -0.00      0.00   2284.90

     local   stress (kbar)   1943.57      0.00      0.00
                                0.00   1943.57      0.00
                                0.00      0.00   1943.57

     nonloc. stress (kbar)   -439.90      0.00     -0.00
                               -0.00   -439.90     -0.00
                                0.00      0.00   -439.90

     hartree stress (kbar)    199.97     -0.00     -0.00
                               -0.00    199.97      0.00
                               -0.00      0.00    199.97

     exc-cor stress (kbar)   -821.17      0.00      0.00
                                0.00   -821.17      0.00
                                0.00      0.00   -821.17

     corecor stress (kbar)      0.00      0.00      0.00
                                0.00      0.00      0.00
                                0.00      0.00      0.00

     ewald   stress (kbar)  -3167.35     -0.00     -0.00
                               -0.00  -3167.35      0.00
                               -0.00      0.00  -3167.35

     hubbard stress (kbar)      0.00      0.00      0.00
                                0.00      0.00      0.00
                                0.00      0.00      0.00

     DFT-D   stress (kbar)      0.00      0.00      0.00
                                0.00      0.00      0.00
                                0.00      0.00      0.00

     XDM     stress (kbar)      0.00      0.00      0.00
                                0.00      0.00      0.00
                                0.00      0.00      0.00

     dft-nl  stress (kbar)      0.00      0.00      0.00
                                0.00      0.00      0.00
                                0.00      0.00      0.00

     TS-vdW  stress (kbar)      0.00      0.00      0.00
                                0.00      0.00      0.00
                                0.00      0.00      0.00



     Writing output data file ./Si.save/
 
     init_run     :      0.47s CPU      1.25s WALL (       1 calls)
     electrons    :      8.46s CPU      8.70s WALL (       1 calls)
     forces       :      0.02s CPU      0.03s WALL (       1 calls)
     stress       :      0.11s CPU      0.11s WALL (       1 calls)

     Called by init_run:
     wfcinit      :      0.29s CPU      0.70s WALL (       1 calls)
     wfcinit:atom :      0.00s CPU      0.00s WALL (       4 calls)
     wfcinit:wfcr :      0.26s CPU      0.68s WALL (       4 calls)
     potinit      :      0.02s CPU      0.02s WALL (       1 calls)
     hinit0       :      0.10s CPU      0.43s WALL (       1 calls)

     Called by electrons:
     c_bands      :      7.39s CPU      7.58s WALL (       7 calls)
     sum_band     :      1.00s CPU      1.01s WALL (       7 calls)
     v_of_rho     :      0.04s CPU      0.05s WALL (       7 calls)
     v_h          :      0.01s CPU      0.01s WALL (       7 calls)
     v_xc         :      0.04s CPU      0.04s WALL (       7 calls)
     mix_rho      :      0.01s CPU      0.02s WALL (       7 calls)

     Called by c_bands:
     init_us_2    :      0.07s CPU      0.08s WALL (      68 calls)
     cegterg      :      6.34s CPU      6.46s WALL (      28 calls)

     Called by sum_band:
     sum_band:wei :      0.00s CPU      0.00s WALL (       7 calls)
     sum_band:loo :      0.94s CPU      0.95s WALL (       7 calls)
     sum_band:buf :      0.00s CPU      0.00s WALL (      28 calls)
     sum_band:ini :      0.03s CPU      0.03s WALL (      28 calls)

     Called by *egterg:
     cdiaghg      :      1.02s CPU      1.32s WALL (     129 calls)
     cegterg:over :      0.16s CPU      0.16s WALL (     105 calls)
     cegterg:upda :      0.15s CPU      0.15s WALL (     105 calls)
     cegterg:last :      0.05s CPU      0.06s WALL (      32 calls)
     h_psi        :      5.13s CPU      5.35s WALL (     137 calls)
     g_psi        :      0.02s CPU      0.02s WALL (     105 calls)

     Called by h_psi:
     h_psi:calbec :      0.04s CPU      0.11s WALL (     137 calls)
     vloc_psi     :      5.02s CPU      5.17s WALL (     137 calls)
     add_vuspsi   :      0.04s CPU      0.05s WALL (     137 calls)

     General routines
     calbec       :      0.04s CPU      0.11s WALL (     157 calls)
     fft          :      0.03s CPU      0.34s WALL (      26 calls)
     ffts         :      0.00s CPU      0.00s WALL (       7 calls)
     fftw         :      5.42s CPU      5.57s WALL (    6248 calls)
 
     Parallel routines
 
     PWSCF        :      9.28s CPU     11.41s WALL

 
   This run was terminated on:  10: 0:56   2Mar2021            

=------------------------------------------------------------------------------=
   JOB DONE.
=------------------------------------------------------------------------------=
