 BEGIN_INFO
   #
   # this is a Band-XCRYSDEN-Structure-File
   # aimed at Visualization of Fermi Surface
   #
   # Case:   BAs_fs.bxsf
   #
 Fermi Energy:          0.0000
 END_INFO
 BEGIN_BLOCK_BANDGRID_3D
 band_energies
 BANDGRID_3D_BANDS
    6
   25   25   25
  0.000000  0.000000  0.000000
 -0.990099 -0.990099  1.005191
  0.990099  0.990099  1.005191
 -0.990099  0.990099 -1.005191
BAND:   1
   -6.9395   -6.9110   -6.8253   -6.6831   -6.4859   -6.2358
   -5.9365   -5.5939   -5.2185   -4.8290   -4.4608   -4.1773
   -4.0665   -4.1773   -4.4608   -4.8290   -5.2185   -5.5939
   -5.9365   -6.2358   -6.4859   -6.6831   -6.8253   -6.9110
   -6.9395   -6.9110   -6.9018   -6.8355   -6.7125   -6.5339
   -6.3016   -6.0187   -5.6902   -5.3247   -4.9375   -4.5570
   -4.2361   -4.0575   -4.0938   -4.3281   -4.6759   -5.0628
   -5.4453   -5.8002   -6.1147   -6.3818   -6.5971   -6.7580
   -6.8629   -6.9110   -6.8253   -6.8355   -6.7885   -6.6848
   -6.5253   -6.3114   -6.0458   -5.7328   -5.3796   -4.9986
   -4.6129   -4.2655   -4.0298   -3.9901   -4.1644   -4.4821
   -4.8603   -5.2463   -5.6112   -5.9395   -6.2225   -6.4551
   -6.6342   -6.7580   -6.8253   -6.6831   -6.7125   -6.6848
   -6.6005   -6.4601   -6.2650   -6.0175   -5.7212   -5.3820
   -5.0105   -4.6253   -4.2614   -3.9809   -3.8696   -3.9758
   -4.2529   -4.6154   -5.0002   -5.3722   -5.7121   -6.0096
   -6.2586   -6.4551   -6.5971   -6.6831   -6.4859   -6.5339
   -6.5253   -6.4601   -6.3389   -6.1629   -5.9339   -5.6551
   -5.3317   -4.9723   -4.5925   -4.2205   -3.9080   -3.7349
   -3.7694   -3.9960   -4.3341   -4.7120   -5.0871   -5.4360
   -5.7460   -6.0096   -6.2225   -6.3818   -6.4859   -6.2358
   -6.3016   -6.3114   -6.2650   -6.1629   -6.0060   -5.7958
   -5.5353   -5.2289   -4.8840   -4.5135   -4.1409   -3.8086
   -3.5870   -3.5532   -3.7213   -4.0256   -4.3895   -4.7625
   -5.1165   -5.4360   -5.7121   -5.9395   -6.1147   -6.2358
   -5.9365   -6.0187   -6.0458   -6.0175   -5.9339   -5.7958
   -5.6047   -5.3630   -5.0747   -4.7462   -4.3889   -4.0222
   -3.6816   -3.4273   -3.3355   -3.4427   -3.7045   -4.0455
   -4.4091   -4.7625   -5.0871   -5.3722   -5.6112   -5.8002
   -5.9365   -5.5939   -5.6902   -5.7328   -5.7212   -5.6551
   -5.5353   -5.3630   -5.1404   -4.8711   -4.5610   -4.2202
   -3.8658   -3.5283   -3.2590   -3.1273   -3.1798   -3.3932
   -3.7011   -4.0455   -4.3895   -4.7120   -5.0002   -5.2463
   -5.4453   -5.5939   -5.2185   -5.3247   -5.3796   -5.3820
   -5.3317   -5.2289   -5.0747   -4.8711   -4.6215   -4.3318
   -4.0113   -3.6761   -3.3538   -3.0897   -2.9440   -2.9607
   -3.1280   -3.3932   -3.7045   -4.0256   -4.3341   -4.6154
   -4.8603   -5.0628   -5.2185   -4.8290   -4.9375   -4.9986
   -5.0105   -4.9723   -4.8840   -4.7462   -4.5610   -4.3318
   -4.0645   -3.7687   -3.4613   -3.1695   -2.9358   -2.8108
   -2.8240   -2.9607   -3.1798   -3.4427   -3.7213   -3.9960
   -4.2529   -4.4821   -4.6759   -4.8290   -4.4608   -4.5570
   -4.6129   -4.6253   -4.5925   -4.5135   -4.3889   -4.2202
   -4.0113   -3.7687   -3.5039   -3.2360   -2.9958   -2.8254
   -2.7620   -2.8108   -2.9440   -3.1273   -3.3355   -3.5532
   -3.7694   -3.9758   -4.1644   -4.3281   -4.4608   -4.1773
   -4.2361   -4.2655   -4.2614   -4.2205   -4.1409   -4.0222
   -3.8658   -3.6761   -3.4613   -3.2360   -3.0252   -2.8653
   -2.7943   -2.8254   -2.9358   -3.0897   -3.2590   -3.4273
   -3.5870   -3.7349   -3.8696   -3.9901   -4.0938   -4.1773
   -4.0665   -4.0575   -4.0298   -3.9809   -3.9080   -3.8086
   -3.6816   -3.5283   -3.3538   -3.1695   -2.9958   -2.8653
   -2.8157   -2.8653   -2.9958   -3.1695   -3.3538   -3.5283
   -3.6816   -3.8086   -3.9080   -3.9809   -4.0298   -4.0575
   -4.0665   -4.1773   -4.0938   -3.9901   -3.8696   -3.7349
   -3.5870   -3.4273   -3.2590   -3.0897   -2.9358   -2.8254
   -2.7943   -2.8653   -3.0252   -3.2360   -3.4613   -3.6761
   -3.8658   -4.0222   -4.1409   -4.2205   -4.2614   -4.2655
   -4.2361   -4.1773   -4.4608   -4.3281   -4.1644   -3.9758
   -3.7694   -3.5532   -3.3355   -3.1273   -2.9440   -2.8108
   -2.7620   -2.8254   -2.9958   -3.2360   -3.5039   -3.7687
   -4.0113   -4.2202   -4.3889   -4.5135   -4.5925   -4.6253
   -4.6129   -4.5570   -4.4608   -4.8290   -4.6759   -4.4821
   -4.2529   -3.9960   -3.7213   -3.4427   -3.1798   -2.9607
   -2.8240   -2.8108   -2.9358   -3.1695   -3.4613   -3.7687
   -4.0645   -4.3318   -4.5610   -4.7462   -4.8840   -4.9723
   -5.0105   -4.9986   -4.9375   -4.8290   -5.2185   -5.0628
   -4.8603   -4.6154   -4.3341   -4.0256   -3.7045   -3.3932
   -3.1280   -2.9607   -2.9440   -3.0897   -3.3538   -3.6761
   -4.0113   -4.3318   -4.6215   -4.8711   -5.0747   -5.2289
   -5.3317   -5.3820   -5.3796   -5.3247   -5.2185   -5.5939
   -5.4453   -5.2463   -5.0002   -4.7120   -4.3895   -4.0455
   -3.7011   -3.3932   -3.1798   -3.1273   -3.2590   -3.5283
   -3.8658   -4.2202   -4.5610   -4.8711   -5.1404   -5.3630
   -5.5353   -5.6551   -5.7212   -5.7328   -5.6902   -5.5939
   -5.9365   -5.8002   -5.6112   -5.3722   -5.0871   -4.7625
   -4.4091   -4.0455   -3.7045   -3.4427   -3.3355   -3.4273
   -3.6816   -4.0222   -4.3889   -4.7462   -5.0747   -5.3630
   -5.6047   -5.7958   -5.9339   -6.0175   -6.0458   -6.0187
   -5.9365   -6.2358   -6.1147   -5.9395   -5.7121   -5.4360
   -5.1165   -4.7625   -4.3895   -4.0256   -3.7213   -3.5532
   -3.5870   -3.8086   -4.1409   -4.5135   -4.8840   -5.2289
   -5.5353   -5.7958   -6.0060   -6.1629   -6.2650   -6.3114
   -6.3016   -6.2358   -6.4859   -6.3818   -6.2225   -6.0096
   -5.7460   -5.4360   -5.0871   -4.7120   -4.3341   -3.9960
   -3.7694   -3.7349   -3.9080   -4.2205   -4.5925   -4.9723
   -5.3317   -5.6551   -5.9339   -6.1629   -6.3389   -6.4601
   -6.5253   -6.5339   -6.4859   -6.6831   -6.5971   -6.4551
   -6.2586   -6.0096   -5.7121   -5.3722   -5.0002   -4.6154
   -4.2529   -3.9758   -3.8696   -3.9809   -4.2614   -4.6253
   -5.0105   -5.3820   -5.7212   -6.0175   -6.2650   -6.4601
   -6.6005   -6.6848   -6.7125   -6.6831   -6.8253   -6.7580
   -6.6342   -6.4551   -6.2225   -5.9395   -5.6112   -5.2463
   -4.8603   -4.4821   -4.1644   -3.9901   -4.0298   -4.2655
   -4.6129   -4.9986   -5.3796   -5.7328   -6.0458   -6.3114
   -6.5253   -6.6848   -6.7885   -6.8355   -6.8253   -6.9110
   -6.8629   -6.7580   -6.5971   -6.3818   -6.1147   -5.8002
   -5.4453   -5.0628   -4.6759   -4.3281   -4.0938   -4.0575
   -4.2361   -4.5570   -4.9375   -5.3247   -5.6902   -6.0187
   -6.3016   -6.5339   -6.7125   -6.8355   -6.9018   -6.9110
   -6.9395   -6.9110   -6.8253   -6.6831   -6.4859   -6.2358
   -5.9365   -5.5939   -5.2185   -4.8290   -4.4608   -4.1773
   -4.0665   -4.1773   -4.4608   -4.8290   -5.2185   -5.5939
   -5.9365   -6.2358   -6.4859   -6.6831   -6.8253   -6.9110
   -6.9395   -6.9110   -6.9018   -6.8355   -6.7125   -6.5339
   -6.3016   -6.0187   -5.6902   -5.3247   -4.9375   -4.5570
   -4.2361   -4.0575   -4.0938   -4.3281   -4.6759   -5.0628
   -5.4453   -5.8002   -6.1147   -6.3818   -6.5971   -6.7580
   -6.8629   -6.9110   -6.9005   -6.9110   -6.8640   -6.7603
   -6.6004   -6.3861   -6.1199   -5.8062   -5.4520   -5.0698
   -4.6825   -4.3334   -4.0960   -4.0555   -4.2306   -4.5497
   -4.9295   -5.3169   -5.6830   -6.0124   -6.2962   -6.5295
   -6.7091   -6.8332   -6.9005   -6.8332   -6.8629   -6.8355
   -6.7510   -6.6103   -6.4145   -6.1660   -5.8682   -5.5273
   -5.1534   -4.7652   -4.3976   -4.1131   -3.9990   -4.1052
   -4.3849   -4.7506   -5.1387   -5.5134   -5.8558   -6.1553
   -6.4058   -6.6036   -6.7465   -6.8332   -6.7091   -6.7580
   -6.7499   -6.6848   -6.5634   -6.3865   -6.1563   -5.8756
   -5.5496   -5.1868   -4.8023   -4.4245   -4.1050   -3.9255
   -3.9576   -4.1867   -4.5299   -4.9134   -5.2936   -5.6470
   -5.9606   -6.2272   -6.4425   -6.6036   -6.7091   -6.5295
   -6.5971   -6.6081   -6.5623   -6.4601   -6.3024   -6.0908
   -5.8280   -5.5183   -5.1688   -4.7920   -4.4109   -4.0679
   -3.8347   -3.7932   -3.9620   -4.2732   -4.6458   -5.0272
   -5.3886   -5.7144   -5.9957   -6.2272   -6.4058   -6.5295
   -6.2962   -6.3818   -6.4113   -6.3844   -6.3014   -6.1629
   -5.9703   -5.7260   -5.4335   -5.0992   -4.7334   -4.3551
   -3.9988   -3.7253   -3.6170   -3.7195   -3.9887   -4.3425
   -4.7198   -5.0855   -5.4206   -5.7144   -5.9606   -6.1553
   -6.2962   -6.0124   -6.1147   -6.1619   -6.1532   -6.0889
   -5.9693   -5.7958   -5.5703   -5.2961   -4.9786   -4.6267
   -4.2563   -3.8958   -3.5963   -3.4337   -3.4699   -3.6886
   -4.0146   -4.3806   -4.7452   -5.0855   -5.3886   -5.6470
   -5.8558   -6.0124   -5.6830   -5.8002   -5.8633   -5.8717
   -5.8252   -5.7241   -5.5695   -5.3630   -5.1077   -4.8084
   -4.4730   -4.1153   -3.7593   -3.4481   -3.2483   -3.2268
   -3.3907   -3.6795   -4.0249   -4.3806   -4.7198   -5.0272
   -5.2936   -5.5134   -5.6830   -5.3169   -5.4453   -5.5217
   -5.5450   -5.5147   -5.4309   -5.2945   -5.1069   -4.8711
   -4.5913   -4.2751   -3.9348   -3.5922   -3.2842   -3.0688
   -3.0084   -3.1221   -3.3664   -3.6795   -4.0146   -4.3425
   -4.6458   -4.9134   -5.1387   -5.3169   -4.9295   -5.0628
   -5.1474   -5.1817   -5.1647   -5.0961   -4.9764   -4.8071
   -4.5907   -4.3318   -4.0376   -3.7205   -3.4012   -3.1141
   -2.9102   -2.8411   -2.9226   -3.1221   -3.3907   -3.6886
   -3.9887   -4.2732   -4.5299   -4.7506   -4.9295   -4.5497
   -4.6759   -4.7593   -4.7973   -4.7878   -4.7301   -4.6242
   -4.4714   -4.2742   -4.0373   -3.7687   -3.4820   -3.1993
   -2.9562   -2.7981   -2.7603   -2.8411   -3.0084   -3.2268
   -3.4699   -3.7195   -3.9620   -4.1867   -4.3849   -4.5497
   -4.2306   -4.3281   -4.3927   -4.4201   -4.4073   -4.3521
   -4.2540   -4.1138   -3.9340   -3.7202   -3.4819   -3.2360
   -3.0094   -2.8406   -2.7668   -2.7981   -2.9102   -3.0688
   -3.2483   -3.4337   -3.6170   -3.7932   -3.9576   -4.1052
   -4.2306   -4.0555   -4.0938   -4.1107   -4.1027   -4.0658
   -3.9970   -3.8946   -3.7587   -3.5920   -3.4014   -3.1998
   -3.0098   -2.8653   -2.8036   -2.8406   -2.9562   -3.1141
   -3.2842   -3.4481   -3.5963   -3.7253   -3.8347   -3.9255
   -3.9990   -4.0555   -4.0960   -4.0575   -4.0006   -3.9267
   -3.8356   -3.7262   -3.5973   -3.4492   -3.2856   -3.1157
   -2.9578   -2.8419   -2.8043   -2.8653   -3.0094   -3.1993
   -3.4012   -3.5922   -3.7593   -3.8958   -3.9988   -4.0679
   -4.1050   -4.1131   -4.0960   -4.3334   -4.2361   -4.1107
   -3.9629   -3.7983   -3.6219   -3.4382   -3.2525   -3.0728
   -2.9139   -2.8013   -2.7692   -2.8419   -3.0098   -3.2360
   -3.4820   -3.7205   -3.9348   -4.1153   -4.2563   -4.3551
   -4.4109   -4.4245   -4.3976   -4.3334   -4.6825   -4.5570
   -4.3927   -4.1949   -3.9704   -3.7279   -3.4781   -3.2346
   -3.0156   -2.8474   -2.7653   -2.8013   -2.9578   -3.1998
   -3.4819   -3.7687   -4.0376   -4.2751   -4.4730   -4.6267
   -4.7334   -4.7920   -4.8023   -4.7652   -4.6825   -5.0698
   -4.9375   -4.7593   -4.5393   -4.2832   -3.9992   -3.6992
   -3.4011   -3.1318   -2.9310   -2.8474   -2.9139   -3.1157
   -3.4014   -3.7202   -4.0373   -4.3318   -4.5913   -4.8084
   -4.9786   -5.0992   -5.1688   -5.1868   -5.1534   -5.0698
   -5.4520   -5.3247   -5.1474   -4.9231   -4.6562   -4.3537
   -4.0262   -3.6913   -3.3776   -3.1318   -3.0156   -3.0728
   -3.2856   -3.5920   -3.9340   -4.2742   -4.5907   -4.8711
   -5.1077   -5.2961   -5.4335   -5.5183   -5.5496   -5.5273
   -5.4520   -5.8062   -5.6902   -5.5217   -5.3029   -5.0374
   -4.7308   -4.3922   -4.0369   -3.6913   -3.4011   -3.2346
   -3.2525   -3.4492   -3.7587   -4.1138   -4.4714   -4.8071
   -5.1069   -5.3630   -5.5703   -5.7260   -5.8280   -5.8756
   -5.8682   -5.8062   -6.1199   -6.0187   -5.8633   -5.6554
   -5.3981   -5.0959   -4.7564   -4.3922   -4.0262   -3.6992
   -3.4781   -3.4382   -3.5973   -3.8946   -4.2540   -4.6242
   -4.9764   -5.2945   -5.5695   -5.7958   -5.9703   -6.0908
   -6.1563   -6.1660   -6.1199   -6.3861   -6.3016   -6.1619
   -5.9682   -5.7230   -5.4302   -5.0959   -4.7308   -4.3537
   -3.9992   -3.7279   -3.6219   -3.7262   -3.9970   -4.3521
   -4.7301   -5.0961   -5.4309   -5.7241   -5.9693   -6.1629
   -6.3024   -6.3865   -6.4145   -6.3861   -6.6004   -6.5339
   -6.4113   -6.2338   -6.0033   -5.7230   -5.3981   -5.0374
   -4.6562   -4.2832   -3.9704   -3.7983   -3.8356   -4.0658
   -4.4073   -4.7878   -5.1647   -5.5147   -5.8252   -6.0889
   -6.3014   -6.4601   -6.5634   -6.6103   -6.6004   -6.7603
   -6.7125   -6.6081   -6.4480   -6.2338   -5.9682   -5.6554
   -5.3029   -4.9231   -4.5393   -4.1949   -3.9629   -3.9267
   -4.1027   -4.4201   -4.7973   -5.1817   -5.5450   -5.8717
   -6.1532   -6.3844   -6.5623   -6.6848   -6.7510   -6.7603
   -6.8640   -6.8355   -6.7499   -6.6081   -6.4113   -6.1619
   -5.8633   -5.5217   -5.1474   -4.7593   -4.3927   -4.1107
   -4.0006   -4.1107   -4.3927   -4.7593   -5.1474   -5.5217
   -5.8633   -6.1619   -6.4113   -6.6081   -6.7499   -6.8355
   -6.8640   -6.9110   -6.9018   -6.8355   -6.7125   -6.5339
   -6.3016   -6.0187   -5.6902   -5.3247   -4.9375   -4.5570
   -4.2361   -4.0575   -4.0938   -4.3281   -4.6759   -5.0628
   -5.4453   -5.8002   -6.1147   -6.3818   -6.5971   -6.7580
   -6.8629   -6.9110   -6.8253   -6.8355   -6.7885   -6.6848
   -6.5253   -6.3114   -6.0458   -5.7328   -5.3796   -4.9986
   -4.6129   -4.2655   -4.0298   -3.9901   -4.1644   -4.4821
   -4.8603   -5.2463   -5.6112   -5.9395   -6.2225   -6.4551
   -6.6342   -6.7580   -6.8253   -6.8332   -6.8629   -6.8355
   -6.7510   -6.6103   -6.4145   -6.1660   -5.8682   -5.5273
   -5.1534   -4.7652   -4.3976   -4.1131   -3.9990   -4.1052
   -4.3849   -4.7506   -5.1387   -5.5134   -5.8558   -6.1553
   -6.4058   -6.6036   -6.7465   -6.8332   -6.7841   -6.8332
   -6.8253   -6.7603   -6.6387   -6.4616   -6.2310   -5.9497
   -5.6229   -5.2590   -4.8733   -4.4937   -4.1721   -3.9906
   -4.0221   -4.2519   -4.5967   -4.9819   -5.3636   -5.7182
   -6.0330   -6.3005   -6.5165   -6.6782   -6.7841   -6.6782
   -6.7465   -6.7580   -6.7125   -6.6103   -6.4522   -6.2400
   -5.9762   -5.6650   -5.3136   -4.9342   -4.5497   -4.2022
   -3.9641   -3.9196   -4.0887   -4.4027   -4.7789   -5.1638
   -5.5283   -5.8567   -6.1401   -6.3734   -6.5534   -6.6782
   -6.5165   -6.6036   -6.6342   -6.6081   -6.5253   -6.3865
   -6.1932   -5.9476   -5.6531   -5.3159   -4.9463   -4.5626
   -4.1991   -3.9170   -3.8012   -3.9016   -4.1741   -4.5338
   -4.9172   -5.2885   -5.6285   -5.9264   -6.1759   -6.3734
   -6.5165   -6.3005   -6.4058   -6.4551   -6.4480   -6.3844
   -6.2650   -6.0908   -5.8639   -5.5872   -5.2659   -4.9087
   -4.5306   -4.1596   -3.8463   -3.6693   -3.6977   -3.9186
   -4.2530   -4.6290   -5.0032   -5.3519   -5.6622   -5.9264
   -6.1401   -6.3005   -6.0330   -6.1553   -6.2225   -6.2338
   -6.1891   -6.0889   -5.9339   -5.7260   -5.4677   -5.1637
   -4.8212   -4.4530   -4.0819   -3.7497   -3.5252   -3.4851
   -3.6465   -3.9461   -4.3072   -4.6788   -5.0323   -5.3519
   -5.6285   -5.8567   -6.0330   -5.7182   -5.8558   -5.9395
   -5.9682   -5.9416   -5.8600   -5.7241   -5.5353   -5.2961
   -5.0104   -4.6848   -4.3302   -3.9658   -3.6262   -3.3701
   -3.2726   -3.3722   -3.6278   -3.9649   -4.3264   -4.6788
   -5.0032   -5.2885   -5.5283   -5.7182   -5.3636   -5.5134
   -5.6112   -5.6554   -5.6456   -5.5817   -5.4643   -5.2945
   -5.0747   -4.8084   -4.5016   -4.1641   -3.8128   -3.4772
   -3.2073   -3.0708   -3.1155   -3.3213   -3.6238   -3.9649
   -4.3072   -4.6290   -4.9172   -5.1638   -5.3636   -4.9819
   -5.1387   -5.2463   -5.3029   -5.3073   -5.2592   -5.1589
   -5.0075   -4.8071   -4.5610   -4.2751   -3.9586   -3.6274
   -3.3082   -3.0448   -2.8955   -2.9044   -3.0630   -3.3213
   -3.6278   -3.9461   -4.2530   -4.5338   -4.7789   -4.9819
   -4.5967   -4.7506   -4.8603   -4.9231   -4.9370   -4.9012
   -4.8156   -4.6810   -4.4993   -4.2742   -4.0113   -3.7205
   -3.4180   -3.1305   -2.8986   -2.7709   -2.7768   -2.9044
   -3.1155   -3.3722   -3.6465   -3.9186   -4.1741   -4.4027
   -4.5967   -4.2519   -4.3849   -4.4821   -4.5393   -4.5538
   -4.5234   -4.4474   -4.3262   -4.1616   -3.9574   -3.7202
   -3.4613   -3.1993   -2.9642   -2.7957   -2.7293   -2.7709
   -2.8955   -3.0708   -3.2726   -3.4851   -3.6977   -3.9016
   -4.0887   -4.2519   -4.0221   -4.1052   -4.1644   -4.1949
   -4.1926   -4.1541   -4.0777   -3.9628   -3.8111   -3.6268
   -3.4182   -3.1998   -2.9958   -2.8406   -2.7696   -2.7957
   -2.8986   -3.0448   -3.2073   -3.3701   -3.5252   -3.6693
   -3.8012   -3.9196   -4.0221   -3.9906   -3.9990   -3.9901
   -3.9629   -3.9156   -3.8451   -3.7489   -3.6261   -3.4779
   -3.3097   -3.1325   -2.9662   -2.8419   -2.7943   -2.8406
   -2.9642   -3.1305   -3.3082   -3.4772   -3.6262   -3.7497
   -3.8463   -3.9170   -3.9641   -3.9906   -4.1721   -4.1131
   -4.0298   -3.9267   -3.8077   -3.6752   -3.5306   -3.3753
   -3.2126   -3.0501   -2.9038   -2.8002   -2.7727   -2.8419
   -2.9958   -3.1993   -3.4180   -3.6274   -3.8128   -3.9658
   -4.0819   -4.1596   -4.1991   -4.2022   -4.1721   -4.4937
   -4.3976   -4.2655   -4.1027   -3.9156   -3.7115   -3.4984
   -3.2851   -3.0826   -2.9063   -2.7802   -2.7365   -2.8002
   -2.9662   -3.1998   -3.4613   -3.7205   -3.9586   -4.1641
   -4.3302   -4.4530   -4.5306   -4.5626   -4.5497   -4.4937
   -4.8733   -4.7652   -4.6129   -4.4201   -4.1926   -3.9377
   -3.6659   -3.3912   -3.1335   -2.9207   -2.7901   -2.7802
   -2.9038   -3.1325   -3.4182   -3.7202   -4.0113   -4.2751
   -4.5016   -4.6848   -4.8212   -4.9087   -4.9463   -4.9342
   -4.8733   -5.2590   -5.1534   -4.9986   -4.7973   -4.5538
   -4.2743   -3.9683   -3.6504   -3.3433   -3.0831   -2.9207
   -2.9063   -3.0501   -3.3097   -3.6268   -3.9574   -4.2742
   -4.5610   -4.8084   -5.0104   -5.1637   -5.2659   -5.3159
   -5.3136   -5.2590   -5.6229   -5.5273   -5.3796   -5.1817
   -4.9370   -4.6505   -4.3301   -3.9885   -3.6474   -3.3433
   -3.1335   -3.0826   -3.2126   -3.4779   -3.8111   -4.1616
   -4.4993   -4.8071   -5.0747   -5.2961   -5.4677   -5.5872
   -5.6531   -5.6650   -5.6229   -5.9497   -5.8682   -5.7328
   -5.5450   -5.3073   -5.0238   -4.7010   -4.3498   -3.9885
   -3.6504   -3.3912   -3.2851   -3.3753   -3.6261   -3.9628
   -4.3262   -4.6810   -5.0075   -5.2945   -5.5353   -5.7260
   -5.8639   -5.9476   -5.9762   -5.9497   -6.2310   -6.1660
   -6.0458   -5.8717   -5.6456   -5.3710   -5.0532   -4.7010
   -4.3301   -3.9683   -3.6659   -3.4984   -3.5306   -3.7489
   -4.0777   -4.4474   -4.8156   -5.1589   -5.4643   -5.7241
   -5.9339   -6.0908   -6.1932   -6.2400   -6.2310   -6.4616
   -6.4145   -6.3114   -6.1532   -5.9416   -5.6794   -5.3710
   -5.0238   -4.6505   -4.2743   -3.9377   -3.7115   -3.6752
   -3.8451   -4.1541   -4.5234   -4.9012   -5.2592   -5.5817
   -5.8600   -6.0889   -6.2650   -6.3865   -6.4522   -6.4616
   -6.6387   -6.6103   -6.5253   -6.3844   -6.1891   -5.9416
   -5.6456   -5.3073   -4.9370   -4.5538   -4.1926   -3.9156
   -3.8077   -3.9156   -4.1926   -4.5538   -4.9370   -5.3073
   -5.6456   -5.9416   -6.1891   -6.3844   -6.5253   -6.6103
   -6.6387   -6.7603   -6.7510   -6.6848   -6.5623   -6.3844
   -6.1532   -5.8717   -5.5450   -5.1817   -4.7973   -4.4201
   -4.1027   -3.9267   -3.9629   -4.1949   -4.5393   -4.9231
   -5.3029   -5.6554   -5.9682   -6.2338   -6.4480   -6.6081
   -6.7125   -6.7603   -6.8253   -6.8355   -6.7885   -6.6848
   -6.5253   -6.3114   -6.0458   -5.7328   -5.3796   -4.9986
   -4.6129   -4.2655   -4.0298   -3.9901   -4.1644   -4.4821
   -4.8603   -5.2463   -5.6112   -5.9395   -6.2225   -6.4551
   -6.6342   -6.7580   -6.8253   -6.6831   -6.7125   -6.6848
   -6.6005   -6.4601   -6.2650   -6.0175   -5.7212   -5.3820
   -5.0105   -4.6253   -4.2614   -3.9809   -3.8696   -3.9758
   -4.2529   -4.6154   -5.0002   -5.3722   -5.7121   -6.0096
   -6.2586   -6.4551   -6.5971   -6.6831   -6.7091   -6.7580
   -6.7499   -6.6848   -6.5634   -6.3865   -6.1563   -5.8756
   -5.5496   -5.1868   -4.8023   -4.4245   -4.1050   -3.9255
   -3.9576   -4.1867   -4.5299   -4.9134   -5.2936   -5.6470
   -5.9606   -6.2272   -6.4425   -6.6036   -6.7091   -6.6782
   -6.7465   -6.7580   -6.7125   -6.6103   -6.4522   -6.2400
   -5.9762   -5.6650   -5.3136   -4.9342   -4.5497   -4.2022
   -3.9641   -3.9196   -4.0887   -4.4027   -4.7789   -5.1638
   -5.5283   -5.8567   -6.1401   -6.3734   -6.5534   -6.6782
   -6.5904   -6.6782   -6.7091   -6.6831   -6.6004   -6.4616
   -6.2681   -6.0220   -5.7270   -5.3890   -5.0182   -4.6329
   -4.2673   -3.9826   -3.8647   -3.9644   -4.2379   -4.5993
   -4.9845   -5.3575   -5.6990   -5.9980   -6.2486   -6.4468
   -6.5904   -6.4468   -6.5534   -6.6036   -6.5971   -6.5339
   -6.4145   -6.2400   -6.0124   -5.7346   -5.4118   -5.0523
   -4.6712   -4.2959   -3.9770   -3.7943   -3.8195   -4.0412
   -4.3790   -4.7591   -5.1372   -5.4893   -5.8025   -6.0691
   -6.2848   -6.4468   -6.2486   -6.3734   -6.4425   -6.4551
   -6.4113   -6.3114   -6.1563   -5.9476   -5.6879   -5.3816
   -5.0358   -4.6628   -4.2850   -3.9435   -3.7081   -3.6596
   -3.8198   -4.1241   -4.4922   -4.8709   -5.2308   -5.5560
   -5.8372   -6.0691   -6.2486   -5.9980   -6.1401   -6.2272
   -6.2586   -6.2338   -6.1532   -6.0175   -5.8280   -5.5872
   -5.2986   -4.9684   -4.6071   -4.2328   -3.8792   -3.6049
   -3.4903   -3.5829   -3.8432   -4.1910   -4.5646   -4.9282
   -5.2624   -5.5560   -5.8025   -5.9980   -5.6990   -5.8567
   -5.9606   -6.0096   -6.0033   -5.9416   -5.8252   -5.6551
   -5.4335   -5.1637   -4.8509   -4.5041   -4.1388   -3.7824
   -3.4838   -3.3160   -3.3416   -3.5491   -3.8670   -4.2278
   -4.5895   -4.9282   -5.2308   -5.4893   -5.6990   -5.3575
   -5.5283   -5.6470   -5.7121   -5.7230   -5.6794   -5.5817
   -5.4309   -5.2289   -4.9786   -4.6848   -4.3555   -4.0041
   -3.6538   -3.3454   -3.1423   -3.1102   -3.2606   -3.5385
   -3.8766   -4.2278   -4.5646   -4.8709   -5.1372   -5.3575
   -4.9845   -5.1638   -5.2936   -5.3722   -5.3981   -5.3710
   -5.2910   -5.1589   -4.9764   -4.7462   -4.4730   -4.1641
   -3.8317   -3.4965   -3.1936   -2.9772   -2.9070   -3.0054
   -3.2356   -3.5385   -3.8670   -4.1910   -4.4922   -4.7591
   -4.9845   -4.5993   -4.7789   -4.9134   -5.0002   -5.0374
   -5.0238   -4.9593   -4.8446   -4.6810   -4.4714   -4.2202
   -3.9348   -3.6274   -3.3177   -3.0381   -2.8352   -2.7573
   -2.8227   -3.0054   -3.2606   -3.5491   -3.8432   -4.1241
   -4.3790   -4.5993   -4.2379   -4.4027   -4.5299   -4.6154
   -4.6562   -4.6505   -4.5974   -4.4971   -4.3510   -4.1616
   -3.9340   -3.6761   -3.4012   -3.1305   -2.8964   -2.7398
   -2.6929   -2.7573   -2.9070   -3.1102   -3.3416   -3.5829
   -3.8198   -4.0412   -4.2379   -3.9644   -4.0887   -4.1867
   -4.2529   -4.2832   -4.2743   -4.2243   -4.1325   -4.0000
   -3.8296   -3.6268   -3.4014   -3.1695   -2.9562   -2.7957
   -2.7203   -2.7398   -2.8352   -2.9772   -3.1423   -3.3160
   -3.4903   -3.6596   -3.8195   -3.9644   -3.8647   -3.9196
   -3.9576   -3.9758   -3.9704   -3.9377   -3.8745   -3.7793
   -3.6523   -3.4966   -3.3191   -3.1325   -2.9578   -2.8254
   -2.7668   -2.7957   -2.8964   -3.0381   -3.1936   -3.3454
   -3.4838   -3.6049   -3.7081   -3.7943   -3.8647   -3.9826
   -3.9641   -3.9255   -3.8696   -3.7983   -3.7115   -3.6081
   -3.4873   -3.3495   -3.1986   -3.0436   -2.9019   -2.8002
   -2.7692   -2.8254   -2.9562   -3.1305   -3.3177   -3.4965
   -3.6538   -3.7824   -3.8792   -3.9435   -3.9770   -3.9826
   -4.2673   -4.2022   -4.1050   -3.9809   -3.8356   -3.6752
   -3.5050   -3.3299   -3.1555   -2.9899   -2.8472   -2.7503
   -2.7282   -2.8002   -2.9578   -3.1695   -3.4012   -3.6274
   -3.8317   -4.0041   -4.1388   -4.2328   -4.2850   -4.2959
   -4.2673   -4.6329   -4.5497   -4.4245   -4.2614   -4.0658
   -3.8451   -3.6081   -3.3663   -3.1338   -2.9289   -2.7767
   -2.7085   -2.7503   -2.9019   -3.1325   -3.4014   -3.6761
   -3.9348   -4.1641   -4.3555   -4.5041   -4.6071   -4.6628
   -4.6712   -4.6329   -5.0182   -4.9342   -4.8023   -4.6253
   -4.4073   -4.1541   -3.8745   -3.5810   -3.2920   -3.0349
   -2.8483   -2.7767   -2.8472   -3.0436   -3.3191   -3.6268
   -3.9340   -4.2202   -4.4730   -4.6848   -4.8509   -4.9684
   -5.0358   -5.0523   -5.0182   -5.3890   -5.3136   -5.1868
   -5.0105   -4.7878   -4.5234   -4.2243   -3.9017   -3.5736
   -3.2693   -3.0349   -2.9289   -2.9899   -3.1986   -3.4966
   -3.8296   -4.1616   -4.4714   -4.7462   -4.9786   -5.1637
   -5.2986   -5.3816   -5.4118   -5.3890   -5.7270   -5.6650
   -5.5496   -5.3820   -5.1647   -4.9012   -4.5974   -4.2626
   -3.9124   -3.5736   -3.2920   -3.1338   -3.1555   -3.3495
   -3.6523   -4.0000   -4.3510   -4.6810   -4.9764   -5.2289
   -5.4335   -5.5872   -5.6879   -5.7346   -5.7270   -6.0220
   -5.9762   -5.8756   -5.7212   -5.5147   -5.2592   -4.9593
   -4.6228   -4.2626   -3.9017   -3.5810   -3.3663   -3.3299
   -3.4873   -3.7793   -4.1325   -4.4971   -4.8446   -5.1589
   -5.4309   -5.6551   -5.8280   -5.9476   -6.0124   -6.0220
   -6.2681   -6.2400   -6.1563   -6.0175   -5.8252   -5.5817
   -5.2910   -4.9593   -4.5974   -4.2243   -3.8745   -3.6081
   -3.5050   -3.6081   -3.8745   -4.2243   -4.5974   -4.9593
   -5.2910   -5.5817   -5.8252   -6.0175   -6.1563   -6.2400
   -6.2681   -6.4616   -6.4522   -6.3865   -6.2650   -6.0889
   -5.8600   -5.5817   -5.2592   -4.9012   -4.5234   -4.1541
   -3.8451   -3.6752   -3.7115   -3.9377   -4.2743   -4.6505
   -5.0238   -5.3710   -5.6794   -5.9416   -6.1532   -6.3114
   -6.4145   -6.4616   -6.6004   -6.6103   -6.5634   -6.4601
   -6.3014   -6.0889   -5.8252   -5.5147   -5.1647   -4.7878
   -4.4073   -4.0658   -3.8356   -3.7983   -3.9704   -4.2832
   -4.6562   -5.0374   -5.3981   -5.7230   -6.0033   -6.2338
   -6.4113   -6.5339   -6.6004   -6.6831   -6.7125   -6.6848
   -6.6005   -6.4601   -6.2650   -6.0175   -5.7212   -5.3820
   -5.0105   -4.6253   -4.2614   -3.9809   -3.8696   -3.9758
   -4.2529   -4.6154   -5.0002   -5.3722   -5.7121   -6.0096
   -6.2586   -6.4551   -6.5971   -6.6831   -6.4859   -6.5339
   -6.5253   -6.4601   -6.3389   -6.1629   -5.9339   -5.6551
   -5.3317   -4.9723   -4.5925   -4.2205   -3.9080   -3.7349
   -3.7694   -3.9960   -4.3341   -4.7120   -5.0871   -5.4360
   -5.7460   -6.0096   -6.2225   -6.3818   -6.4859   -6.5295
   -6.5971   -6.6081   -6.5623   -6.4601   -6.3024   -6.0908
   -5.8280   -5.5183   -5.1688   -4.7920   -4.4109   -4.0679
   -3.8347   -3.7932   -3.9620   -4.2732   -4.6458   -5.0272
   -5.3886   -5.7144   -5.9957   -6.2272   -6.4058   -6.5295
   -6.5165   -6.6036   -6.6342   -6.6081   -6.5253   -6.3865
   -6.1932   -5.9476   -5.6531   -5.3159   -4.9463   -4.5626
   -4.1991   -3.9170   -3.8012   -3.9016   -4.1741   -4.5338
   -4.9172   -5.2885   -5.6285   -5.9264   -6.1759   -6.3734
   -6.5165   -6.4468   -6.5534   -6.6036   -6.5971   -6.5339
   -6.4145   -6.2400   -6.0124   -5.7346   -5.4118   -5.0523
   -4.6712   -4.2959   -3.9770   -3.7943   -3.8195   -4.0412
   -4.3790   -4.7591   -5.1372   -5.4893   -5.8025   -6.0691
   -6.2848   -6.4468   -6.3212   -6.4468   -6.5165   -6.5295
   -6.4859   -6.3861   -6.2310   -6.0220   -5.7619   -5.4549
   -5.1081   -4.7338   -4.3540   -4.0099   -3.7713   -3.7205
   -3.8802   -4.1858   -4.5559   -4.9367   -5.2985   -5.6252
   -5.9078   -6.1409   -6.3212   -6.1409   -6.2848   -6.3734
   -6.4058   -6.3818   -6.3016   -6.1660   -5.9762   -5.7346
   -5.4448   -5.1128   -4.7487   -4.3705   -4.0113   -3.7299
   -3.6085   -3.6982   -3.9603   -4.3123   -4.6907   -5.0588
   -5.3969   -5.6938   -5.9431   -6.1409   -5.9078   -6.0691
   -6.1759   -6.2272   -6.2225   -6.1619   -6.0458   -5.8756
   -5.6531   -5.3816   -5.0661   -4.7151   -4.3436   -3.9782
   -3.6673   -3.4860   -3.5028   -3.7107   -4.0352   -4.4046
   -4.7746   -5.1209   -5.4299   -5.6938   -5.9078   -5.6252
   -5.8025   -5.9264   -5.9957   -6.0096   -5.9682   -5.8717
   -5.7212   -5.5183   -5.2659   -4.9684   -4.6333   -4.2728
   -3.9090   -3.5813   -3.3545   -3.3030   -3.4486   -3.7348
   -4.0869   -4.4529   -4.8030   -5.1209   -5.3969   -5.6252
   -5.2985   -5.4893   -5.6285   -5.7144   -5.7460   -5.7230
   -5.6456   -5.5147   -5.3317   -5.0992   -4.8212   -4.5041
   -4.1589   -3.8037   -3.4713   -3.2157   -3.1079   -3.1893
   -3.4273   -3.7518   -4.1053   -4.4529   -4.7746   -5.0588
   -5.2985   -4.9367   -5.1372   -5.2885   -5.3886   -5.4360
   -5.4302   -5.3710   -5.2592   -5.0961   -4.8840   -4.6267
   -4.3302   -4.0041   -3.6646   -3.3392   -3.0733   -2.9288
   -2.9537   -3.1373   -3.4224   -3.7518   -4.0869   -4.4046
   -4.6907   -4.9367   -4.5559   -4.7591   -4.9172   -5.0272
   -5.0871   -5.0959   -5.0532   -4.9593   -4.8156   -4.6242
   -4.3889   -4.1153   -3.8128   -3.4965   -3.1911   -2.9354
   -2.7808   -2.7696   -2.9019   -3.1373   -3.4273   -3.7348
   -4.0352   -4.3123   -4.5559   -4.1858   -4.3790   -4.5338
   -4.6458   -4.7120   -4.7308   -4.7010   -4.6228   -4.4971
   -4.3262   -4.1138   -3.8658   -3.5922   -3.3082   -3.0381
   -2.8167   -2.6849   -2.6705   -2.7696   -2.9537   -3.1893
   -3.4486   -3.7107   -3.9603   -4.1858   -3.8802   -4.0412
   -4.1741   -4.2732   -4.3341   -4.3537   -4.3301   -4.2626
   -4.1519   -4.0000   -3.8111   -3.5920   -3.3538   -3.1141
   -2.8986   -2.7398   -2.6660   -2.6849   -2.7808   -2.9288
   -3.1079   -3.3030   -3.5028   -3.6982   -3.8802   -3.7205
   -3.8195   -3.9016   -3.9620   -3.9960   -3.9992   -3.9683
   -3.9017   -3.7991   -3.6626   -3.4966   -3.3097   -3.1157
   -2.9358   -2.7981   -2.7293   -2.7398   -2.8167   -2.9354
   -3.0733   -3.2157   -3.3545   -3.4860   -3.6085   -3.7205
   -3.7713   -3.7943   -3.8012   -3.7932   -3.7694   -3.7279
   -3.6659   -3.5810   -3.4726   -3.3423   -3.1958   -3.0436
   -2.9038   -2.8013   -2.7620   -2.7981   -2.8986   -3.0381
   -3.1911   -3.3392   -3.4713   -3.5813   -3.6673   -3.7299
   -3.7713   -4.0099   -3.9770   -3.9170   -3.8347   -3.7349
   -3.6219   -3.4984   -3.3663   -3.2275   -3.0855   -2.9479
   -2.8289   -2.7503   -2.7365   -2.8013   -2.9358   -3.1141
   -3.3082   -3.4965   -3.6646   -3.8037   -3.9090   -3.9782
   -4.0113   -4.0099   -4.3540   -4.2959   -4.1991   -4.0679
   -3.9080   -3.7262   -3.5306   -3.3299   -3.1337   -2.9534