
     Program PWSCF v.6.4rc starts on 26Aug2019 at 17:11:49 

     This program is part of the open-source Quantum ESPRESSO suite
     for quantum simulation of materials; please cite
         "P. Giannozzi et al., J. Phys.:Condens. Matter 21 395502 (2009);
         "P. Giannozzi et al., J. Phys.:Condens. Matter 29 465901 (2017);
          URL http://www.quantum-espresso.org", 
     in publications or presentations arising from this work. More details at
     http://www.quantum-espresso.org/quote

     Parallel version (MPI), running on     4 processors

     MPI processes distributed on     1 nodes
     K-points division:     npool     =       4
     Waiting for input...
     Reading input from standard input
Warning: card &IONS ignored
Warning: card / ignored
Warning: card &CELL ignored
Warning: card / ignored

     Current dimensions of program PWSCF are:
     Max number of different atomic species (ntypx) = 10
     Max number of k-points (npk) =  40000
     Max angular momentum in pseudopotentials (lmaxx) =  3

     Atomic positions and unit cell read from directory:
     ./BAs.save/

               file B.cpi.UPF: wavefunction(s)  2s 2p 3d renormalized
               file As.cpi.UPF: wavefunction(s)  4s 4p 4d renormalized

     Subspace diagonalization in iterative solution of the eigenvalue problem:
     a serial algorithm will be used


     G-vector sticks info
     --------------------
     sticks:   dense  smooth     PW     G-vecs:    dense   smooth      PW
     Sum         559     559    181                 8705     8705    1575



     bravais-lattice index     =            0
     lattice parameter (alat)  =       8.9562  a.u.
     unit-cell volume          =     182.2663 (a.u.)^3
     number of atoms/cell      =            2
     number of atomic types    =            2
     number of electrons       =         8.00
     number of Kohn-Sham states=           24
     kinetic-energy cutoff     =      50.0000  Ry
     charge density cutoff     =     200.0000  Ry
     Exchange-correlation      = SLA  PZ   NOGX NOGC ( 1  1  0  0 0 0)

     celldm(1)=   8.956205  celldm(2)=   0.000000  celldm(3)=   0.000000
     celldm(4)=   0.000000  celldm(5)=   0.000000  celldm(6)=   0.000000

     crystal axes: (cart. coord. in units of alat)
               a(1) = (  -0.505000   0.000000   0.497418 )  
               a(2) = (   0.000000   0.505000   0.497418 )  
               a(3) = (  -0.505000   0.505000   0.000000 )  

     reciprocal axes: (cart. coord. in units 2 pi/alat)
               b(1) = ( -0.990099 -0.990099  1.005191 )  
               b(2) = (  0.990099  0.990099  1.005191 )  
               b(3) = ( -0.990099  0.990099 -1.005191 )  


     PseudoPot. # 1 for B  read from file:
     ./B.cpi.UPF
     MD5 check sum: 858e09cd2823d4a3381ad351fbe5daf8
     Pseudo is Norm-conserving, Zval =  3.0
     Generated using FHI98PP, converted with fhi2upf.x v.5.0.2
     Using radial grid of  991 points,  2 beta functions with: 
                l(1) =   0
                l(2) =   1

     PseudoPot. # 2 for As read from file:
     ./As.cpi.UPF
     MD5 check sum: 77982eeacdf728cf28132b225af03d26
     Pseudo is Norm-conserving, Zval =  5.0
     Generated by new atomic code, or converted to UPF format
     Using radial grid of 1142 points,  2 beta functions with: 
                l(1) =   0
                l(2) =   1

     atomic species   valence    mass     pseudopotential
        B              3.00    10.81000     B ( 1.00)
        As             5.00    74.92200     As( 1.00)

      8 Sym. Ops. (no inversion) found


                                    s                        frac. trans.

      isym =  1     identity                                     

 cryst.   s( 1) = (     1          0          0      )
                  (     0          1          0      )
                  (     0          0          1      )

 cart.    s( 1) = (  1.0000000  0.0000000  0.0000000 )
                  (  0.0000000  1.0000000  0.0000000 )
                  (  0.0000000  0.0000000  1.0000000 )


      isym =  2     180 deg rotation - cart. axis [0,0,1]        

 cryst.   s( 2) = (     0          1         -1      )
                  (     1          0         -1      )
                  (     0          0         -1      )

 cart.    s( 2) = ( -1.0000000  0.0000000  0.0000000 )
                  (  0.0000000 -1.0000000  0.0000000 )
                  (  0.0000000  0.0000000  1.0000000 )


      isym =  3     180 deg rotation - cart. axis [0,1,0]        

 cryst.   s( 3) = (    -1          0          0      )
                  (    -1          0          1      )
                  (    -1          1          0      )

 cart.    s( 3) = ( -1.0000000  0.0000000  0.0000000 )
                  (  0.0000000  1.0000000  0.0000000 )
                  (  0.0000000  0.0000000 -1.0000000 )


      isym =  4     180 deg rotation - cart. axis [1,0,0]        

 cryst.   s( 4) = (     0         -1          1      )
                  (     0         -1          0      )
                  (     1         -1          0      )

 cart.    s( 4) = (  1.0000000  0.0000000  0.0000000 )
                  (  0.0000000 -1.0000000  0.0000000 )
                  (  0.0000000  0.0000000 -1.0000000 )


      isym =  5     inv. 180 deg rotation - cart. axis [1,1,0]   

 cryst.   s( 5) = (     0          1          0      )
                  (     1          0          0      )
                  (     0          0          1      )

 cart.    s( 5) = (  0.0000000 -1.0000000  0.0000000 )
                  ( -1.0000000  0.0000000  0.0000000 )
                  (  0.0000000  0.0000000  1.0000000 )


      isym =  6     inv. 180 deg rotation - cart. axis [1,-1,0]  

 cryst.   s( 6) = (     1          0         -1      )
                  (     0          1         -1      )
                  (     0          0         -1      )

 cart.    s( 6) = (  0.0000000  1.0000000  0.0000000 )
                  (  1.0000000  0.0000000  0.0000000 )
                  (  0.0000000  0.0000000  1.0000000 )


      isym =  7     inv.  90 deg rotation - cart. axis [0,0,-1]  

 cryst.   s( 7) = (     0         -1          0      )
                  (     0         -1          1      )
                  (     1         -1          0      )

 cart.    s( 7) = (  0.0000000 -1.0000000  0.0000000 )
                  (  1.0000000  0.0000000  0.0000000 )
                  (  0.0000000  0.0000000 -1.0000000 )


      isym =  8     inv.  90 deg rotation - cart. axis [0,0,1]   

 cryst.   s( 8) = (    -1          0          1      )
                  (    -1          0          0      )
                  (    -1          1          0      )

 cart.    s( 8) = (  0.0000000  1.0000000  0.0000000 )
                  ( -1.0000000  0.0000000  0.0000000 )
                  (  0.0000000  0.0000000 -1.0000000 )


   Cartesian axes

     site n.     atom                  positions (alat units)
         1           As  tau(   1) = (   0.0000000   0.0000000   0.0000000  )
         2           B   tau(   2) = (  -0.2525000   0.2525000   0.2487090  )

   Crystallographic axes

     site n.     atom                  positions (cryst. coord.)
         1           As  tau(   1) = (  0.0000000  0.0000000  0.0000000  )
         2           B   tau(   2) = (  0.2500000  0.2500000  0.2500000  )

     number of k points=  1063 (tetrahedron method)
                       cart. coord. in units 2pi/alat
        k(    1) = (   0.0000000   0.0000000   0.0000000), wk =   0.0001447
        k(    2) = (  -0.0412541   0.0412541  -0.0418830), wk =   0.0011574
        k(    3) = (  -0.0825083   0.0825083  -0.0837659), wk =   0.0011574
        k(    4) = (  -0.1237624   0.1237624  -0.1256489), wk =   0.0011574
        k(    5) = (  -0.1650165   0.1650165  -0.1675318), wk =   0.0011574
        k(    6) = (  -0.2062706   0.2062706  -0.2094148), wk =   0.0011574
        k(    7) = (  -0.2475248   0.2475248  -0.2512977), wk =   0.0011574
        k(    8) = (  -0.2887789   0.2887789  -0.2931807), wk =   0.0011574
        k(    9) = (  -0.3300330   0.3300330  -0.3350636), wk =   0.0011574
        k(   10) = (  -0.3712871   0.3712871  -0.3769466), wk =   0.0011574
        k(   11) = (  -0.4125413   0.4125413  -0.4188295), wk =   0.0011574
        k(   12) = (  -0.4537954   0.4537954  -0.4607125), wk =   0.0011574
        k(   13) = (   0.4950495  -0.4950495   0.5025954), wk =   0.0005787
        k(   14) = (   0.0000000   0.0825083   0.0000000), wk =   0.0005787
        k(   15) = (  -0.0412541   0.1237624  -0.0418830), wk =   0.0023148
        k(   16) = (  -0.0825083   0.1650165  -0.0837659), wk =   0.0023148
        k(   17) = (  -0.1237624   0.2062706  -0.1256489), wk =   0.0023148
        k(   18) = (  -0.1650165   0.2475248  -0.1675318), wk =   0.0023148
        k(   19) = (  -0.2062706   0.2887789  -0.2094148), wk =   0.0023148
        k(   20) = (  -0.2475248   0.3300330  -0.2512977), wk =   0.0023148
        k(   21) = (  -0.2887789   0.3712871  -0.2931807), wk =   0.0023148
        k(   22) = (  -0.3300330   0.4125413  -0.3350636), wk =   0.0023148
        k(   23) = (  -0.3712871   0.4537954  -0.3769466), wk =   0.0023148
        k(   24) = (  -0.4125413   0.4950495  -0.4188295), wk =   0.0023148
        k(   25) = (   0.5363036  -0.4537954   0.5444784), wk =   0.0023148
        k(   26) = (   0.4950495  -0.4125413   0.5025954), wk =   0.0023148
        k(   27) = (   0.4537954  -0.3712871   0.4607125), wk =   0.0023148
        k(   28) = (   0.4125413  -0.3300330   0.4188295), wk =   0.0023148
        k(   29) = (   0.3712871  -0.2887789   0.3769466), wk =   0.0023148
        k(   30) = (   0.3300330  -0.2475248   0.3350636), wk =   0.0023148
        k(   31) = (   0.2887789  -0.2062706   0.2931807), wk =   0.0023148
        k(   32) = (   0.2475248  -0.1650165   0.2512977), wk =   0.0023148
        k(   33) = (   0.2062706  -0.1237624   0.2094148), wk =   0.0023148
        k(   34) = (   0.1650165  -0.0825083   0.1675318), wk =   0.0023148
        k(   35) = (   0.1237624  -0.0412541   0.1256489), wk =   0.0023148
        k(   36) = (   0.0825083   0.0000000   0.0837659), wk =   0.0011574
        k(   37) = (   0.0000000   0.1650165   0.0000000), wk =   0.0005787
        k(   38) = (  -0.0412541   0.2062706  -0.0418830), wk =   0.0023148
        k(   39) = (  -0.0825083   0.2475248  -0.0837659), wk =   0.0023148
        k(   40) = (  -0.1237624   0.2887789  -0.1256489), wk =   0.0023148
        k(   41) = (  -0.1650165   0.3300330  -0.1675318), wk =   0.0023148
        k(   42) = (  -0.2062706   0.3712871  -0.2094148), wk =   0.0023148
        k(   43) = (  -0.2475248   0.4125413  -0.2512977), wk =   0.0023148
        k(   44) = (  -0.2887789   0.4537954  -0.2931807), wk =   0.0023148
        k(   45) = (  -0.3300330   0.4950495  -0.3350636), wk =   0.0023148
        k(   46) = (  -0.3712871   0.5363036  -0.3769466), wk =   0.0023148
        k(   47) = (   0.5775578  -0.4125413   0.5863613), wk =   0.0023148
        k(   48) = (   0.5363036  -0.3712871   0.5444784), wk =   0.0023148
        k(   49) = (   0.4950495  -0.3300330   0.5025954), wk =   0.0023148
        k(   50) = (   0.4537954  -0.2887789   0.4607125), wk =   0.0023148
        k(   51) = (   0.4125413  -0.2475248   0.4188295), wk =   0.0023148
        k(   52) = (   0.3712871  -0.2062706   0.3769466), wk =   0.0023148
        k(   53) = (   0.3300330  -0.1650165   0.3350636), wk =   0.0023148
        k(   54) = (   0.2887789  -0.1237624   0.2931807), wk =   0.0023148
        k(   55) = (   0.2475248  -0.0825083   0.2512977), wk =   0.0023148
        k(   56) = (   0.2062706  -0.0412541   0.2094148), wk =   0.0023148
        k(   57) = (   0.1650165  -0.0000000   0.1675318), wk =   0.0011574
        k(   58) = (   0.0000000   0.2475248   0.0000000), wk =   0.0005787
        k(   59) = (  -0.0412541   0.2887789  -0.0418830), wk =   0.0023148
        k(   60) = (  -0.0825083   0.3300330  -0.0837659), wk =   0.0023148
        k(   61) = (  -0.1237624   0.3712871  -0.1256489), wk =   0.0023148
        k(   62) = (  -0.1650165   0.4125413  -0.1675318), wk =   0.0023148
        k(   63) = (  -0.2062706   0.4537954  -0.2094148), wk =   0.0023148
        k(   64) = (  -0.2475248   0.4950495  -0.2512977), wk =   0.0023148
        k(   65) = (  -0.2887789   0.5363036  -0.2931807), wk =   0.0023148
        k(   66) = (  -0.3300330   0.5775578  -0.3350636), wk =   0.0023148
        k(   67) = (   0.6188119  -0.3712871   0.6282443), wk =   0.0023148
        k(   68) = (   0.5775578  -0.3300330   0.5863613), wk =   0.0023148
        k(   69) = (   0.5363036  -0.2887789   0.5444784), wk =   0.0023148
        k(   70) = (   0.4950495  -0.2475248   0.5025954), wk =   0.0023148
        k(   71) = (   0.4537954  -0.2062706   0.4607125), wk =   0.0023148
        k(   72) = (   0.4125413  -0.1650165   0.4188295), wk =   0.0023148
        k(   73) = (   0.3712871  -0.1237624   0.3769466), wk =   0.0023148
        k(   74) = (   0.3300330  -0.0825083   0.3350636), wk =   0.0023148
        k(   75) = (   0.2887789  -0.0412541   0.2931807), wk =   0.0023148
        k(   76) = (   0.2475248   0.0000000   0.2512977), wk =   0.0011574
        k(   77) = (   0.0000000   0.3300330   0.0000000), wk =   0.0005787
        k(   78) = (  -0.0412541   0.3712871  -0.0418830), wk =   0.0023148
        k(   79) = (  -0.0825083   0.4125413  -0.0837659), wk =   0.0023148
        k(   80) = (  -0.1237624   0.4537954  -0.1256489), wk =   0.0023148
        k(   81) = (  -0.1650165   0.4950495  -0.1675318), wk =   0.0023148
        k(   82) = (  -0.2062706   0.5363036  -0.2094148), wk =   0.0023148
        k(   83) = (  -0.2475248   0.5775578  -0.2512977), wk =   0.0023148
        k(   84) = (  -0.2887789   0.6188119  -0.2931807), wk =   0.0023148
        k(   85) = (   0.6600660  -0.3300330   0.6701272), wk =   0.0023148
        k(   86) = (   0.6188119  -0.2887789   0.6282443), wk =   0.0023148
        k(   87) = (   0.5775578  -0.2475248   0.5863613), wk =   0.0023148
        k(   88) = (   0.5363036  -0.2062706   0.5444784), wk =   0.0023148
        k(   89) = (   0.4950495  -0.1650165   0.5025954), wk =   0.0023148
        k(   90) = (   0.4537954  -0.1237624   0.4607125), wk =   0.0023148
        k(   91) = (   0.4125413  -0.0825083   0.4188295), wk =   0.0023148
        k(   92) = (   0.3712871  -0.0412541   0.3769466), wk =   0.0023148
        k(   93) = (   0.3300330   0.0000000   0.3350636), wk =   0.0011574
        k(   94) = (   0.0000000   0.4125413   0.0000000), wk =   0.0005787
        k(   95) = (  -0.0412541   0.4537954  -0.0418830), wk =   0.0023148
        k(   96) = (  -0.0825083   0.4950495  -0.0837659), wk =   0.0023148
        k(   97) = (  -0.1237624   0.5363036  -0.1256489), wk =   0.0023148
        k(   98) = (  -0.1650165   0.5775578  -0.1675318), wk =   0.0023148
        k(   99) = (  -0.2062706   0.6188119  -0.2094148), wk =   0.0023148
        k(  100) = (  -0.2475248   0.6600660  -0.2512977), wk =   0.0023148
        k(  101) = (   0.7013201  -0.2887789   0.7120102), wk =   0.0023148
        k(  102) = (   0.6600660  -0.2475248   0.6701272), wk =   0.0023148
        k(  103) = (   0.6188119  -0.2062706   0.6282443), wk =   0.0023148
        k(  104) = (   0.5775578  -0.1650165   0.5863613), wk =   0.0023148
        k(  105) = (   0.5363036  -0.1237624   0.5444784), wk =   0.0023148
        k(  106) = (   0.4950495  -0.0825083   0.5025954), wk =   0.0023148
        k(  107) = (   0.4537954  -0.0412541   0.4607125), wk =   0.0023148
        k(  108) = (   0.4125413  -0.0000000   0.4188295), wk =   0.0011574
        k(  109) = (   0.0000000   0.4950495   0.0000000), wk =   0.0005787
        k(  110) = (  -0.0412541   0.5363036  -0.0418830), wk =   0.0023148
        k(  111) = (  -0.0825083   0.5775578  -0.0837659), wk =   0.0023148
        k(  112) = (  -0.1237624   0.6188119  -0.1256489), wk =   0.0023148
        k(  113) = (  -0.1650165   0.6600660  -0.1675318), wk =   0.0023148
        k(  114) = (  -0.2062706   0.7013201  -0.2094148), wk =   0.0023148
        k(  115) = (   0.7425743  -0.2475248   0.7538931), wk =   0.0023148
        k(  116) = (   0.7013201  -0.2062706   0.7120102), wk =   0.0023148
        k(  117) = (   0.6600660  -0.1650165   0.6701272), wk =   0.0023148
        k(  118) = (   0.6188119  -0.1237624   0.6282443), wk =   0.0023148
        k(  119) = (   0.5775578  -0.0825083   0.5863613), wk =   0.0023148
        k(  120) = (   0.5363036  -0.0412541   0.5444784), wk =   0.0023148
        k(  121) = (   0.4950495   0.0000000   0.5025954), wk =   0.0011574
        k(  122) = (   0.0000000   0.5775578   0.0000000), wk =   0.0005787
        k(  123) = (  -0.0412541   0.6188119  -0.0418830), wk =   0.0023148
        k(  124) = (  -0.0825083   0.6600660  -0.0837659), wk =   0.0023148
        k(  125) = (  -0.1237624   0.7013201  -0.1256489), wk =   0.0023148
        k(  126) = (  -0.1650165   0.7425743  -0.1675318), wk =   0.0023148
        k(  127) = (   0.7838284  -0.2062706   0.7957761), wk =   0.0023148
        k(  128) = (   0.7425743  -0.1650165   0.7538931), wk =   0.0023148
        k(  129) = (   0.7013201  -0.1237624   0.7120102), wk =   0.0023148
        k(  130) = (   0.6600660  -0.0825083   0.6701272), wk =   0.0023148
        k(  131) = (   0.6188119  -0.0412541   0.6282443), wk =   0.0023148
        k(  132) = (   0.5775578   0.0000000   0.5863613), wk =   0.0011574
        k(  133) = (   0.0000000   0.6600660   0.0000000), wk =   0.0005787
        k(  134) = (  -0.0412541   0.7013201  -0.0418830), wk =   0.0023148
        k(  135) = (  -0.0825083   0.7425743  -0.0837659), wk =   0.0023148
        k(  136) = (  -0.1237624   0.7838284  -0.1256489), wk =   0.0023148
        k(  137) = (   0.8250825  -0.1650165   0.8376590), wk =   0.0023148
        k(  138) = (   0.7838284  -0.1237624   0.7957761), wk =   0.0023148
        k(  139) = (   0.7425743  -0.0825083   0.7538931), wk =   0.0023148
        k(  140) = (   0.7013201  -0.0412541   0.7120102), wk =   0.0023148
        k(  141) = (   0.6600660  -0.0000000   0.6701272), wk =   0.0011574
        k(  142) = (   0.0000000   0.7425743   0.0000000), wk =   0.0005787
        k(  143) = (  -0.0412541   0.7838284  -0.0418830), wk =   0.0023148
        k(  144) = (  -0.0825083   0.8250825  -0.0837659), wk =   0.0023148
        k(  145) = (   0.8663366  -0.1237624   0.8795420), wk =   0.0023148
        k(  146) = (   0.8250825  -0.0825083   0.8376590), wk =   0.0023148
        k(  147) = (   0.7838284  -0.0412541   0.7957761), wk =   0.0023148
        k(  148) = (   0.7425743   0.0000000   0.7538931), wk =   0.0011574
        k(  149) = (   0.0000000   0.8250825   0.0000000), wk =   0.0005787
        k(  150) = (  -0.0412541   0.8663366  -0.0418830), wk =   0.0023148
        k(  151) = (   0.9075908  -0.0825083   0.9214249), wk =   0.0023148
        k(  152) = (   0.8663366  -0.0412541   0.8795420), wk =   0.0023148
        k(  153) = (   0.8250825   0.0000000   0.8376590), wk =   0.0011574
        k(  154) = (   0.0000000   0.9075908   0.0000000), wk =   0.0005787
        k(  155) = (   0.9488449  -0.0412541   0.9633079), wk =   0.0023148
        k(  156) = (   0.9075908  -0.0000000   0.9214249), wk =   0.0011574
        k(  157) = (   0.0000000  -0.9900990   0.0000000), wk =   0.0002894
        k(  158) = (   0.0000000   0.0000000   0.0837659), wk =   0.0002894
        k(  159) = (  -0.0825083   0.0825083   0.0000000), wk =   0.0005787
        k(  160) = (  -0.1237624   0.1237624  -0.0418830), wk =   0.0011574
        k(  161) = (  -0.1650165   0.1650165  -0.0837659), wk =   0.0011574
        k(  162) = (  -0.2062706   0.2062706  -0.1256489), wk =   0.0011574
        k(  163) = (  -0.2475248   0.2475248  -0.1675318), wk =   0.0011574
        k(  164) = (  -0.2887789   0.2887789  -0.2094148), wk =   0.0011574
        k(  165) = (  -0.3300330   0.3300330  -0.2512977), wk =   0.0011574
        k(  166) = (  -0.3712871   0.3712871  -0.2931807), wk =   0.0011574
        k(  167) = (  -0.4125413   0.4125413  -0.3350636), wk =   0.0011574
        k(  168) = (  -0.4537954   0.4537954  -0.3769466), wk =   0.0011574
        k(  169) = (   0.4950495  -0.4950495   0.5863613), wk =   0.0011574
        k(  170) = (   0.4537954  -0.4537954   0.5444784), wk =   0.0011574
        k(  171) = (   0.4125413  -0.4125413   0.5025954), wk =   0.0011574
        k(  172) = (   0.3712871  -0.3712871   0.4607125), wk =   0.0011574
        k(  173) = (   0.3300330  -0.3300330   0.4188295), wk =   0.0011574
        k(  174) = (   0.2887789  -0.2887789   0.3769466), wk =   0.0011574
        k(  175) = (   0.2475248  -0.2475248   0.3350636), wk =   0.0011574
        k(  176) = (   0.2062706  -0.2062706   0.2931807), wk =   0.0011574
        k(  177) = (   0.1650165  -0.1650165   0.2512977), wk =   0.0011574
        k(  178) = (   0.1237624  -0.1237624   0.2094148), wk =   0.0011574
        k(  179) = (   0.0825083  -0.0825083   0.1675318), wk =   0.0011574
        k(  180) = (   0.0412541  -0.0412541   0.1256489), wk =   0.0011574
        k(  181) = (  -0.0825083   0.1650165   0.0000000), wk =   0.0011574
        k(  182) = (  -0.1237624   0.2062706  -0.0418830), wk =   0.0023148
        k(  183) = (  -0.1650165   0.2475248  -0.0837659), wk =   0.0023148
        k(  184) = (  -0.2062706   0.2887789  -0.1256489), wk =   0.0023148
        k(  185) = (  -0.2475248   0.3300330  -0.1675318), wk =   0.0023148
        k(  186) = (  -0.2887789   0.3712871  -0.2094148), wk =   0.0023148
        k(  187) = (  -0.3300330   0.4125413  -0.2512977), wk =   0.0023148
        k(  188) = (  -0.3712871   0.4537954  -0.2931807), wk =   0.0023148
        k(  189) = (  -0.4125413   0.4950495  -0.3350636), wk =   0.0023148
        k(  190) = (   0.5363036  -0.4537954   0.6282443), wk =   0.0023148
        k(  191) = (   0.4950495  -0.4125413   0.5863613), wk =   0.0023148
        k(  192) = (   0.4537954  -0.3712871   0.5444784), wk =   0.0023148
        k(  193) = (   0.4125413  -0.3300330   0.5025954), wk =   0.0023148
        k(  194) = (   0.3712871  -0.2887789   0.4607125), wk =   0.0023148
        k(  195) = (   0.3300330  -0.2475248   0.4188295), wk =   0.0023148
        k(  196) = (   0.2887789  -0.2062706   0.3769466), wk =   0.0023148
        k(  197) = (   0.2475248  -0.1650165   0.3350636), wk =   0.0023148
        k(  198) = (   0.2062706  -0.1237624   0.2931807), wk =   0.0023148
        k(  199) = (   0.1650165  -0.0825083   0.2512977), wk =   0.0023148
        k(  200) = (   0.1237624  -0.0412541   0.2094148), wk =   0.0023148
        k(  201) = (   0.0825083   0.0000000   0.1675318), wk =   0.0011574
        k(  202) = (   0.0000000   0.1650165   0.0837659), wk =   0.0011574
        k(  203) = (  -0.0825083   0.2475248   0.0000000), wk =   0.0011574
        k(  204) = (  -0.1237624   0.2887789  -0.0418830), wk =   0.0023148
        k(  205) = (  -0.1650165   0.3300330  -0.0837659), wk =   0.0023148
        k(  206) = (  -0.2062706   0.3712871  -0.1256489), wk =   0.0023148
        k(  207) = (  -0.2475248   0.4125413  -0.1675318), wk =   0.0023148
        k(  208) = (  -0.2887789   0.4537954  -0.2094148), wk =   0.0023148
        k(  209) = (  -0.3300330   0.4950495  -0.2512977), wk =   0.0023148
        k(  210) = (  -0.3712871   0.5363036  -0.2931807), wk =   0.0023148
        k(  211) = (   0.5775578  -0.4125413   0.6701272), wk =   0.0023148
        k(  212) = (   0.5363036  -0.3712871   0.6282443), wk =   0.0023148
        k(  213) = (   0.4950495  -0.3300330   0.5863613), wk =   0.0023148
        k(  214) = (   0.4537954  -0.2887789   0.5444784), wk =   0.0023148
        k(  215) = (   0.4125413  -0.2475248   0.5025954), wk =   0.0023148
        k(  216) = (   0.3712871  -0.2062706   0.4607125), wk =   0.0023148
        k(  217) = (   0.3300330  -0.1650165   0.4188295), wk =   0.0023148
        k(  218) = (   0.2887789  -0.1237624   0.3769466), wk =   0.0023148
        k(  219) = (   0.2475248  -0.0825083   0.3350636), wk =   0.0023148
        k(  220) = (   0.2062706  -0.0412541   0.2931807), wk =   0.0023148
        k(  221) = (   0.1650165  -0.0000000   0.2512977), wk =   0.0011574
        k(  222) = (   0.0412541   0.2062706   0.1256489), wk =   0.0023148
        k(  223) = (   0.0000000   0.2475248   0.0837659), wk =   0.0011574
        k(  224) = (  -0.0825083   0.3300330   0.0000000), wk =   0.0011574
        k(  225) = (  -0.1237624   0.3712871  -0.0418830), wk =   0.0023148
        k(  226) = (  -0.1650165   0.4125413  -0.0837659), wk =   0.0023148
        k(  227) = (  -0.2062706   0.4537954  -0.1256489), wk =   0.0023148
        k(  228) = (  -0.2475248   0.4950495  -0.1675318), wk =   0.0023148
        k(  229) = (  -0.2887789   0.5363036  -0.2094148), wk =   0.0023148
        k(  230) = (  -0.3300330   0.5775578  -0.2512977), wk =   0.0023148
        k(  231) = (   0.6188119  -0.3712871   0.7120102), wk =   0.0023148
        k(  232) = (   0.5775578  -0.3300330   0.6701272), wk =   0.0023148
        k(  233) = (   0.5363036  -0.2887789   0.6282443), wk =   0.0023148
        k(  234) = (   0.4950495  -0.2475248   0.5863613), wk =   0.0023148
        k(  235) = (   0.4537954  -0.2062706   0.5444784), wk =   0.0023148
        k(  236) = (   0.4125413  -0.1650165   0.5025954), wk =   0.0023148
        k(  237) = (   0.3712871  -0.1237624   0.4607125), wk =   0.0023148
        k(  238) = (   0.3300330  -0.0825083   0.4188295), wk =   0.0023148
        k(  239) = (   0.2887789  -0.0412541   0.3769466), wk =   0.0023148
        k(  240) = (   0.2475248   0.0000000   0.3350636), wk =   0.0011574
        k(  241) = (   0.0825083   0.2475248   0.1675318), wk =   0.0023148
        k(  242) = (   0.0412541   0.2887789   0.1256489), wk =   0.0023148
        k(  243) = (  -0.0000000   0.3300330   0.0837659), wk =   0.0011574
        k(  244) = (  -0.0825083   0.4125413   0.0000000), wk =   0.0011574
        k(  245) = (  -0.1237624   0.4537954  -0.0418830), wk =   0.0023148
        k(  246) = (  -0.1650165   0.4950495  -0.0837659), wk =   0.0023148
        k(  247) = (  -0.2062706   0.5363036  -0.1256489), wk =   0.0023148
        k(  248) = (  -0.2475248   0.5775578  -0.1675318), wk =   0.0023148
        k(  249) = (  -0.2887789   0.6188119  -0.2094148), wk =   0.0023148
        k(  250) = (   0.6600660  -0.3300330   0.7538931), wk =   0.0023148
        k(  251) = (   0.6188119  -0.2887789   0.7120102), wk =   0.0023148
        k(  252) = (   0.5775578  -0.2475248   0.6701272), wk =   0.0023148
        k(  253) = (   0.5363036  -0.2062706   0.6282443), wk =   0.0023148
        k(  254) = (   0.4950495  -0.1650165   0.5863613), wk =   0.0023148
        k(  255) = (   0.4537954  -0.1237624   0.5444784), wk =   0.0023148
        k(  256) = (   0.4125413  -0.0825083   0.5025954), wk =   0.0023148
        k(  257) = (   0.3712871  -0.0412541   0.4607125), wk =   0.0023148
        k(  258) = (   0.3300330   0.0000000   0.4188295), wk =   0.0011574
        k(  259) = (   0.1237624   0.2887789   0.2094148), wk =   0.0023148
        k(  260) = (   0.0825083   0.3300330   0.1675318), wk =   0.0023148
        k(  261) = (   0.0412541   0.3712871   0.1256489), wk =   0.0023148
        k(  262) = (   0.0000000   0.4125413   0.0837659), wk =   0.0011574
        k(  263) = (  -0.0825083   0.4950495   0.0000000), wk =   0.0011574
        k(  264) = (  -0.1237624   0.5363036  -0.0418830), wk =   0.0023148
        k(  265) = (  -0.1650165   0.5775578  -0.0837659), wk =   0.0023148
        k(  266) = (  -0.2062706   0.6188119  -0.1256489), wk =   0.0023148
        k(  267) = (  -0.2475248   0.6600660  -0.1675318), wk =   0.0023148
        k(  268) = (   0.7013201  -0.2887789   0.7957761), wk =   0.0023148
        k(  269) = (   0.6600660  -0.2475248   0.7538931), wk =   0.0023148
        k(  270) = (   0.6188119  -0.2062706   0.7120102), wk =   0.0023148
        k(  271) = (   0.5775578  -0.1650165   0.6701272), wk =   0.0023148
        k(  272) = (   0.5363036  -0.1237624   0.6282443), wk =   0.0023148
        k(  273) = (   0.4950495  -0.0825083   0.5863613), wk =   0.0023148
        k(  274) = (   0.4537954  -0.0412541   0.5444784), wk =   0.0023148
        k(  275) = (   0.4125413  -0.0000000   0.5025954), wk =   0.0011574
        k(  276) = (   0.1650165   0.3300330   0.2512977), wk =   0.0023148
        k(  277) = (   0.1237624   0.3712871   0.2094148), wk =   0.0023148
        k(  278) = (   0.0825083   0.4125413   0.1675318), wk =   0.0023148
        k(  279) = (   0.0412541   0.4537954   0.1256489), wk =   0.0023148
        k(  280) = (   0.0000000   0.4950495   0.0837659), wk =   0.0011574
        k(  281) = (  -0.0825083   0.5775578  -0.0000000), wk =   0.0011574
        k(  282) = (  -0.1237624   0.6188119  -0.0418830), wk =   0.0023148
        k(  283) = (  -0.1650165   0.6600660  -0.0837659), wk =   0.0023148
        k(  284) = (  -0.2062706   0.7013201  -0.1256489), wk =   0.0023148
        k(  285) = (   0.7425743  -0.2475248   0.8376590), wk =   0.0023148
        k(  286) = (   0.7013201  -0.2062706   0.7957761), wk =   0.0023148
        k(  287) = (   0.6600660  -0.1650165   0.7538931), wk =   0.0023148
        k(  288) = (   0.6188119  -0.1237624   0.7120102), wk =   0.0023148
        k(  289) = (   0.5775578  -0.0825083   0.6701272), wk =   0.0023148
        k(  290) = (   0.5363036  -0.0412541   0.6282443), wk =   0.0023148
        k(  291) = (   0.4950495  -0.0000000   0.5863613), wk =   0.0011574
        k(  292) = (   0.2062706   0.3712871   0.2931807), wk =   0.0023148
        k(  293) = (   0.1650165   0.4125413   0.2512977), wk =   0.0023148
        k(  294) = (   0.1237624   0.4537954   0.2094148), wk =   0.0023148
        k(  295) = (   0.0825083   0.4950495   0.1675318), wk =   0.0023148
        k(  296) = (   0.0412541   0.5363036   0.1256489), wk =   0.0023148
        k(  297) = (   0.0000000   0.5775578   0.0837659), wk =   0.0011574
        k(  298) = (  -0.0825083   0.6600660   0.0000000), wk =   0.0011574
        k(  299) = (  -0.1237624   0.7013201  -0.0418830), wk =   0.0023148
        k(  300) = (  -0.1650165   0.7425743  -0.0837659), wk =   0.0023148
        k(  301) = (   0.7838284  -0.2062706   0.8795420), wk =   0.0023148
        k(  302) = (   0.7425743  -0.1650165   0.8376590), wk =   0.0023148
        k(  303) = (   0.7013201  -0.1237624   0.7957761), wk =   0.0023148
        k(  304) = (   0.6600660  -0.0825083   0.7538931), wk =   0.0023148
        k(  305) = (   0.6188119  -0.0412541   0.7120102), wk =   0.0023148
        k(  306) = (   0.5775578   0.0000000   0.6701272), wk =   0.0011574
        k(  307) = (   0.2475248   0.4125413   0.3350636), wk =   0.0023148
        k(  308) = (   0.2062706   0.4537954   0.2931807), wk =   0.0023148
        k(  309) = (   0.1650165   0.4950495   0.2512977), wk =   0.0023148
        k(  310) = (   0.1237624   0.5363036   0.2094148), wk =   0.0023148
        k(  311) = (   0.0825083   0.5775578   0.1675318), wk =   0.0023148
        k(  312) = (   0.0412541   0.6188119   0.1256489), wk =   0.0023148
        k(  313) = (   0.0000000   0.6600660   0.0837659), wk =   0.0011574
        k(  314) = (  -0.0825083   0.7425743  -0.0000000), wk =   0.0011574
        k(  315) = (  -0.1237624   0.7838284  -0.0418830), wk =   0.0023148
        k(  316) = (   0.8250825  -0.1650165   0.9214249), wk =   0.0023148
        k(  317) = (   0.7838284  -0.1237624   0.8795420), wk =   0.0023148
        k(  318) = (   0.7425743  -0.0825083   0.8376590), wk =   0.0023148
        k(  319) = (   0.7013201  -0.0412541   0.7957761), wk =   0.0023148
        k(  320) = (   0.6600660  -0.0000000   0.7538931), wk =   0.0011574
        k(  321) = (   0.2887789   0.4537954   0.3769466), wk =   0.0023148
        k(  322) = (   0.2475248   0.4950495   0.3350636), wk =   0.0023148
        k(  323) = (   0.2062706   0.5363036   0.2931807), wk =   0.0023148
        k(  324) = (   0.1650165   0.5775578   0.2512977), wk =   0.0023148
        k(  325) = (   0.1237624   0.6188119   0.2094148), wk =   0.0023148
        k(  326) = (   0.0825083   0.6600660   0.1675318), wk =   0.0023148
        k(  327) = (   0.0412541   0.7013201   0.1256489), wk =   0.0023148
        k(  328) = (   0.0000000   0.7425743   0.0837659), wk =   0.0011574
        k(  329) = (  -0.0825083   0.8250825   0.0000000), wk =   0.0011574
        k(  330) = (   0.8663366  -0.1237624   0.9633079), wk =   0.0023148
        k(  331) = (   0.8250825  -0.0825083   0.9214249), wk =   0.0023148
        k(  332) = (   0.7838284  -0.0412541   0.8795420), wk =   0.0023148
        k(  333) = (   0.7425743   0.0000000   0.8376590), wk =   0.0011574
        k(  334) = (   0.3300330   0.4950495   0.4188295), wk =   0.0023148
        k(  335) = (   0.2887789   0.5363036   0.3769466), wk =   0.0023148
        k(  336) = (   0.2475248   0.5775578   0.3350636), wk =   0.0023148
        k(  337) = (   0.2062706   0.6188119   0.2931807), wk =   0.0023148
        k(  338) = (   0.1650165   0.6600660   0.2512977), wk =   0.0023148
        k(  339) = (   0.1237624   0.7013201   0.2094148), wk =   0.0023148
        k(  340) = (   0.0825083   0.7425743   0.1675318), wk =   0.0023148
        k(  341) = (   0.0412541   0.7838284   0.1256489), wk =   0.0023148
        k(  342) = (   0.0000000   0.8250825   0.0837659), wk =   0.0011574
        k(  343) = (   0.9075908  -0.0825083   1.0051908), wk =   0.0011574
        k(  344) = (   0.8663366  -0.0412541   0.9633079), wk =   0.0023148
        k(  345) = (   0.8250825   0.0000000   0.9214249), wk =   0.0011574
        k(  346) = (  -0.6188119  -0.4537954  -0.5444784), wk =   0.0023148
        k(  347) = (  -0.6600660  -0.4125413  -0.5863613), wk =   0.0023148
        k(  348) = (  -0.7013201  -0.3712871  -0.6282443), wk =   0.0023148
        k(  349) = (  -0.7425743  -0.3300330  -0.6701272), wk =   0.0023148
        k(  350) = (  -0.7838284  -0.2887789  -0.7120102), wk =   0.0023148
        k(  351) = (  -0.8250825  -0.2475248  -0.7538931), wk =   0.0023148
        k(  352) = (  -0.8663366  -0.2062706  -0.7957761), wk =   0.0023148
        k(  353) = (  -0.9075908  -0.1650165  -0.8376590), wk =   0.0023148
        k(  354) = (  -0.9488449  -0.1237624  -0.8795420), wk =   0.0023148
        k(  355) = (  -0.9900990  -0.0825083  -0.9214249), wk =   0.0011574
        k(  356) = (  -0.0825083  -0.9900990   0.0000000), wk =   0.0005787
        k(  357) = (  -0.5775578  -0.4125413  -0.5025954), wk =   0.0011574
        k(  358) = (  -0.6188119  -0.3712871  -0.5444784), wk =   0.0023148
        k(  359) = (  -0.6600660  -0.3300330  -0.5863613), wk =   0.0023148
        k(  360) = (  -0.7013201  -0.2887789  -0.6282443), wk =   0.0023148
        k(  361) = (  -0.7425743  -0.2475248  -0.6701272), wk =   0.0023148
        k(  362) = (  -0.7838284  -0.2062706  -0.7120102), wk =   0.0023148
        k(  363) = (  -0.8250825  -0.1650165  -0.7538931), wk =   0.0023148
        k(  364) = (  -0.8663366  -0.1237624  -0.7957761), wk =   0.0023148
        k(  365) = (  -0.9075908  -0.0825083  -0.8376590), wk =   0.0023148
        k(  366) = (  -0.9488449  -0.0412541  -0.8795420), wk =   0.0023148
        k(  367) = (  -0.0000000  -0.9900990   0.0837659), wk =   0.0005787
        k(  368) = (  -0.5775578  -0.3300330  -0.5025954), wk =   0.0023148
        k(  369) = (  -0.6188119  -0.2887789  -0.5444784), wk =   0.0023148
        k(  370) = (  -0.6600660  -0.2475248  -0.5863613), wk =   0.0023148
        k(  371) = (  -0.7013201  -0.2062706  -0.6282443), wk =   0.0023148
        k(  372) = (  -0.7425743  -0.1650165  -0.6701272), wk =   0.0023148
        k(  373) = (  -0.7838284  -0.1237624  -0.7120102), wk =   0.0023148
        k(  374) = (  -0.8250825  -0.0825083  -0.7538931), wk =   0.0023148
        k(  375) = (  -0.8663366  -0.0412541  -0.7957761), wk =   0.0023148
        k(  376) = (  -0.9075908   0.0000000  -0.8376590), wk =   0.0011574
        k(  377) = (  -0.5363036  -0.2887789  -0.4607125), wk =   0.0023148
        k(  378) = (  -0.5775578  -0.2475248  -0.5025954), wk =   0.0023148
        k(  379) = (  -0.6188119  -0.2062706  -0.5444784), wk =   0.0023148
        k(  380) = (  -0.6600660  -0.1650165  -0.5863613), wk =   0.0023148
        k(  381) = (  -0.7013201  -0.1237624  -0.6282443), wk =   0.0023148
        k(  382) = (  -0.7425743  -0.0825083  -0.6701272), wk =   0.0023148
        k(  383) = (  -0.7838284  -0.0412541  -0.7120102), wk =   0.0023148
        k(  384) = (  -0.8250825   0.0000000  -0.7538931), wk =   0.0011574
        k(  385) = (  -0.4950495  -0.2475248  -0.4188295), wk =   0.0023148
        k(  386) = (  -0.5363036  -0.2062706  -0.4607125), wk =   0.0023148
        k(  387) = (  -0.5775578  -0.1650165  -0.5025954), wk =   0.0023148
        k(  388) = (  -0.6188119  -0.1237624  -0.5444784), wk =   0.0023148
        k(  389) = (  -0.6600660  -0.0825083  -0.5863613), wk =   0.0023148
        k(  390) = (  -0.7013201  -0.0412541  -0.6282443), wk =   0.0023148
        k(  391) = (  -0.7425743  -0.0000000  -0.6701272), wk =   0.0011574
        k(  392) = (  -0.4537954  -0.2062706  -0.3769466), wk =   0.0023148
        k(  393) = (  -0.4950495  -0.1650165  -0.4188295), wk =   0.0023148
        k(  394) = (  -0.5363036  -0.1237624  -0.4607125), wk =   0.0023148
        k(  395) = (  -0.5775578  -0.0825083  -0.5025954), wk =   0.0023148
        k(  396) = (  -0.6188119  -0.0412541  -0.5444784), wk =   0.0023148
        k(  397) = (  -0.6600660   0.0000000  -0.5863613), wk =   0.0011574
        k(  398) = (  -0.4125413  -0.1650165  -0.3350636), wk =   0.0023148
        k(  399) = (  -0.4537954  -0.1237624  -0.3769466), wk =   0.0023148
        k(  400) = (  -0.4950495  -0.0825083  -0.4188295), wk =   0.0023148
        k(  401) = (  -0.5363036  -0.0412541  -0.4607125), wk =   0.0023148
        k(  402) = (  -0.5775578   0.0000000  -0.5025954), wk =   0.0011574
        k(  403) = (  -0.3712871  -0.1237624  -0.2931807), wk =   0.0023148
        k(  404) = (  -0.4125413  -0.0825083  -0.3350636), wk =   0.0023148
        k(  405) = (  -0.4537954  -0.0412541  -0.3769466), wk =   0.0023148
        k(  406) = (  -0.4950495  -0.0000000  -0.4188295), wk =   0.0011574
        k(  407) = (  -0.3300330  -0.0825083  -0.2512977), wk =   0.0023148
        k(  408) = (  -0.3712871  -0.0412541  -0.2931807), wk =   0.0023148
        k(  409) = (  -0.4125413   0.0000000  -0.3350636), wk =   0.0011574
        k(  410) = (  -0.2887789  -0.0412541  -0.2094148), wk =   0.0023148
        k(  411) = (  -0.3300330   0.0000000  -0.2512977), wk =   0.0011574
        k(  412) = (  -0.2475248  -0.0000000  -0.1675318), wk =   0.0011574
        k(  413) = (   0.0000000   0.0000000   0.1675318), wk =   0.0002894
        k(  414) = (  -0.1650165   0.1650165   0.0000000), wk =   0.0005787
        k(  415) = (  -0.2062706   0.2062706  -0.0418830), wk =   0.0011574
        k(  416) = (  -0.2475248   0.2475248  -0.0837659), wk =   0.0011574
        k(  417) = (  -0.2887789   0.2887789  -0.1256489), wk =   0.0011574
        k(  418) = (  -0.3300330   0.3300330  -0.1675318), wk =   0.0011574
        k(  419) = (  -0.3712871   0.3712871  -0.2094148), wk =   0.0011574
        k(  420) = (  -0.4125413   0.4125413  -0.2512977), wk =   0.0011574
        k(  421) = (  -0.4537954   0.4537954  -0.2931807), wk =   0.0011574
        k(  422) = (   0.4950495  -0.4950495   0.6701272), wk =   0.0011574
        k(  423) = (   0.4537954  -0.4537954   0.6282443), wk =   0.0011574
        k(  424) = (   0.4125413  -0.4125413   0.5863613), wk =   0.0011574
        k(  425) = (   0.3712871  -0.3712871   0.5444784), wk =   0.0011574
        k(  426) = (   0.3300330  -0.3300330   0.5025954), wk =   0.0011574
        k(  427) = (   0.2887789  -0.2887789   0.4607125), wk =   0.0011574
        k(  428) = (   0.2475248  -0.2475248   0.4188295), wk =   0.0011574
        k(  429) = (   0.2062706  -0.2062706   0.3769466), wk =   0.0011574
        k(  430) = (   0.1650165  -0.1650165   0.3350636), wk =   0.0011574
        k(  431) = (   0.1237624  -0.1237624   0.2931807), wk =   0.0011574
        k(  432) = (   0.0825083  -0.0825083   0.2512977), wk =   0.0011574
        k(  433) = (   0.0412541  -0.0412541   0.2094148), wk =   0.0011574
        k(  434) = (  -0.1650165   0.2475248   0.0000000), wk =   0.0011574
        k(  435) = (  -0.2062706   0.2887789  -0.0418830), wk =   0.0023148
        k(  436) = (  -0.2475248   0.3300330  -0.0837659), wk =   0.0023148
        k(  437) = (  -0.2887789   0.3712871  -0.1256489), wk =   0.0023148
        k(  438) = (  -0.3300330   0.4125413  -0.1675318), wk =   0.0023148
        k(  439) = (  -0.3712871   0.4537954  -0.2094148), wk =   0.0023148
        k(  440) = (  -0.4125413   0.4950495  -0.2512977), wk =   0.0023148
        k(  441) = (   0.5363036  -0.4537954   0.7120102), wk =   0.0023148
        k(  442) = (   0.4950495  -0.4125413   0.6701272), wk =   0.0023148
        k(  443) = (   0.4537954  -0.3712871   0.6282443), wk =   0.0023148
        k(  444) = (   0.4125413  -0.3300330   0.5863613), wk =   0.0023148
        k(  445) = (   0.3712871  -0.2887789   0.5444784), wk =   0.0023148
        k(  446) = (   0.3300330  -0.2475248   0.5025954), wk =   0.0023148
        k(  447) = (   0.2887789  -0.2062706   0.4607125), wk =   0.0023148
        k(  448) = (   0.2475248  -0.1650165   0.4188295), wk =   0.0023148
        k(  449) = (   0.2062706  -0.1237624   0.3769466), wk =   0.0023148
        k(  450) = (   0.1650165  -0.0825083   0.3350636), wk =   0.0023148
        k(  451) = (   0.1237624  -0.0412541   0.2931807), wk =   0.0023148
        k(  452) = (   0.0825083   0.0000000   0.2512977), wk =   0.0011574
        k(  453) = (  -0.1650165   0.3300330   0.0000000), wk =   0.0011574
        k(  454) = (  -0.2062706   0.3712871  -0.0418830), wk =   0.0023148
        k(  455) = (  -0.2475248   0.4125413  -0.0837659), wk =   0.0023148
        k(  456) = (  -0.2887789   0.4537954  -0.1256489), wk =   0.0023148
        k(  457) = (  -0.3300330   0.4950495  -0.1675318), wk =   0.0023148
        k(  458) = (  -0.3712871   0.5363036  -0.2094148), wk =   0.0023148
        k(  459) = (   0.5775578  -0.4125413   0.7538931), wk =   0.0023148
        k(  460) = (   0.5363036  -0.3712871   0.7120102), wk =   0.0023148
        k(  461) = (   0.4950495  -0.3300330   0.6701272), wk =   0.0023148
        k(  462) = (   0.4537954  -0.2887789   0.6282443), wk =   0.0023148
        k(  463) = (   0.4125413  -0.2475248   0.5863613), wk =   0.0023148
        k(  464) = (   0.3712871  -0.2062706   0.5444784), wk =   0.0023148
        k(  465) = (   0.3300330  -0.1650165   0.5025954), wk =   0.0023148
        k(  466) = (   0.2887789  -0.1237624   0.4607125), wk =   0.0023148
        k(  467) = (   0.2475248  -0.0825083   0.4188295), wk =   0.0023148
        k(  468) = (   0.2062706  -0.0412541   0.3769466), wk =   0.0023148
        k(  469) = (   0.1650165  -0.0000000   0.3350636), wk =   0.0011574
        k(  470) = (  -0.1650165   0.4125413   0.0000000), wk =   0.0011574
        k(  471) = (  -0.2062706   0.4537954  -0.0418830), wk =   0.0023148
        k(  472) = (  -0.2475248   0.4950495  -0.0837659), wk =   0.0023148
        k(  473) = (  -0.2887789   0.5363036  -0.1256489), wk =   0.0023148
        k(  474) = (  -0.3300330   0.5775578  -0.1675318), wk =   0.0023148
        k(  475) = (   0.6188119  -0.3712871   0.7957761), wk =   0.0023148
        k(  476) = (   0.5775578  -0.3300330   0.7538931), wk =   0.0023148
        k(  477) = (   0.5363036  -0.2887789   0.7120102), wk =   0.0023148
        k(  478) = (   0.4950495  -0.2475248   0.6701272), wk =   0.0023148
        k(  479) = (   0.4537954  -0.2062706   0.6282443), wk =   0.0023148
        k(  480) = (   0.4125413  -0.1650165   0.5863613), wk =   0.0023148
        k(  481) = (   0.3712871  -0.1237624   0.5444784), wk =   0.0023148
        k(  482) = (   0.3300330  -0.0825083   0.5025954), wk =   0.0023148
        k(  483) = (   0.2887789  -0.0412541   0.4607125), wk =   0.0023148
        k(  484) = (   0.2475248  -0.0000000   0.4188295), wk =   0.0011574
        k(  485) = (   0.0000000   0.3300330   0.1675318), wk =   0.0011574
        k(  486) = (  -0.1650165   0.4950495   0.0000000), wk =   0.0011574
        k(  487) = (  -0.2062706   0.5363036  -0.0418830), wk =   0.0023148
        k(  488) = (  -0.2475248   0.5775578  -0.0837659), wk =   0.0023148
        k(  489) = (  -0.2887789   0.6188119  -0.1256489), wk =   0.0023148
        k(  490) = (   0.6600660  -0.3300330   0.8376590), wk =   0.0023148
        k(  491) = (   0.6188119  -0.2887789   0.7957761), wk =   0.0023148
        k(  492) = (   0.5775578  -0.2475248   0.7538931), wk =   0.0023148
        k(  493) = (   0.5363036  -0.2062706   0.7120102), wk =   0.0023148
        k(  494) = (   0.4950495  -0.1650165   0.6701272), wk =   0.0023148
        k(  495) = (   0.4537954  -0.1237624   0.6282443), wk =   0.0023148
        k(  496) = (   0.4125413  -0.0825083   0.5863613), wk =   0.0023148
        k(  497) = (   0.3712871  -0.0412541   0.5444784), wk =   0.0023148
        k(  498) = (   0.3300330   0.0000000   0.5025954), wk =   0.0011574
        k(  499) = (   0.0412541   0.3712871   0.2094148), wk =   0.0023148
        k(  500) = (   0.0000000   0.4125413   0.1675318), wk =   0.0011574
        k(  501) = (  -0.1650165   0.5775578   0.0000000), wk =   0.0011574
        k(  502) = (  -0.2062706   0.6188119  -0.0418830), wk =   0.0023148
        k(  503) = (  -0.2475248   0.6600660  -0.0837659), wk =   0.0023148
        k(  504) = (   0.7013201  -0.2887789   0.8795420), wk =   0.0023148
        k(  505) = (   0.6600660  -0.2475248   0.8376590), wk =   0.0023148
        k(  506) = (   0.6188119  -0.2062706   0.7957761), wk =   0.0023148
        k(  507) = (   0.5775578  -0.1650165   0.7538931), wk =   0.0023148
        k(  508) = (   0.5363036  -0.1237624   0.7120102), wk =   0.0023148
        k(  509) = (   0.4950495  -0.0825083   0.6701272), wk =   0.0023148
        k(  510) = (   0.4537954  -0.0412541   0.6282443), wk =   0.0023148
        k(  511) = (   0.4125413  -0.0000000   0.5863613), wk =   0.0011574
        k(  512) = (   0.0825083   0.4125413   0.2512977), wk =   0.0023148
        k(  513) = (   0.0412541   0.4537954   0.2094148), wk =   0.0023148
        k(  514) = (   0.0000000   0.4950495   0.1675318), wk =   0.0011574
        k(  515) = (  -0.1650165   0.6600660   0.0000000), wk =   0.0011574
        k(  516) = (  -0.2062706   0.7013201  -0.0418830), wk =   0.0023148
        k(  517) = (   0.7425743  -0.2475248   0.9214249), wk =   0.0023148
        k(  518) = (   0.7013201  -0.2062706   0.8795420), wk =   0.0023148
        k(  519) = (   0.6600660  -0.1650165   0.8376590), wk =   0.0023148
        k(  520) = (   0.6188119  -0.1237624   0.7957761), wk =   0.0023148
        k(  521) = (   0.5775578  -0.0825083   0.7538931), wk =   0.0023148
        k(  522) = (   0.5363036  -0.0412541   0.7120102), wk =   0.0023148
        k(  523) = (   0.4950495   0.0000000   0.6701272), wk =   0.0011574
        k(  524) = (   0.1237624   0.4537954   0.2931807), wk =   0.0023148
        k(  525) = (   0.0825083   0.4950495   0.2512977), wk =   0.0023148
        k(  526) = (   0.0412541   0.5363036   0.2094148), wk =   0.0023148
        k(  527) = (   0.0000000   0.5775578   0.1675318), wk =   0.0011574
        k(  528) = (  -0.1650165   0.7425743   0.0000000), wk =   0.0011574
        k(  529) = (   0.7838284  -0.2062706   0.9633079), wk =   0.0023148
        k(  530) = (   0.7425743  -0.1650165   0.9214249), wk =   0.0023148
        k(  531) = (   0.7013201  -0.1237624   0.8795420), wk =   0.0023148
        k(  532) = (   0.6600660  -0.0825083   0.8376590), wk =   0.0023148
        k(  533) = (   0.6188119  -0.0412541   0.7957761), wk =   0.0023148
        k(  534) = (   0.5775578   0.0000000   0.7538931), wk =   0.0011574
        k(  535) = (   0.1650165   0.4950495   0.3350636), wk =   0.0023148
        k(  536) = (   0.1237624   0.5363036   0.2931807), wk =   0.0023148
        k(  537) = (   0.0825083   0.5775578   0.2512977), wk =   0.0023148
        k(  538) = (   0.0412541   0.6188119   0.2094148), wk =   0.0023148
        k(  539) = (  -0.0000000   0.6600660   0.1675318), wk =   0.0011574
        k(  540) = (   0.8250825  -0.1650165   1.0051908), wk =   0.0011574
        k(  541) = (   0.7838284  -0.1237624   0.9633079), wk =   0.0023148
        k(  542) = (   0.7425743  -0.0825083   0.9214249), wk =   0.0023148
        k(  543) = (   0.7013201  -0.0412541   0.8795420), wk =   0.0023148
        k(  544) = (   0.6600660  -0.0000000   0.8376590), wk =   0.0011574
        k(  545) = (   0.2062706   0.5363036   0.3769466), wk =   0.0023148
        k(  546) = (   0.1650165   0.5775578   0.3350636), wk =   0.0023148
        k(  547) = (   0.1237624   0.6188119   0.2931807), wk =   0.0023148
        k(  548) = (   0.0825083   0.6600660   0.2512977), wk =   0.0023148
        k(  549) = (   0.0412541   0.7013201   0.2094148), wk =   0.0023148
        k(  550) = (   0.0000000   0.7425743   0.1675318), wk =   0.0011574
        k(  551) = (   0.8250825  -0.0825083   1.0051908), wk =   0.0011574
        k(  552) = (   0.7838284  -0.0412541   0.9633079), wk =   0.0023148
        k(  553) = (   0.7425743   0.0000000   0.9214249), wk =   0.0011574
        k(  554) = (  -0.7425743  -0.4125413  -0.5863613), wk =   0.0023148
        k(  555) = (  -0.7838284  -0.3712871  -0.6282443), wk =   0.0023148
        k(  556) = (  -0.8250825  -0.3300330  -0.6701272), wk =   0.0023148
        k(  557) = (  -0.8663366  -0.2887789  -0.7120102), wk =   0.0023148
        k(  558) = (  -0.9075908  -0.2475248  -0.7538931), wk =   0.0023148
        k(  559) = (  -0.9488449  -0.2062706  -0.7957761), wk =   0.0023148
        k(  560) = (  -0.9900990  -0.1650165  -0.8376590), wk =   0.0011574
        k(  561) = (  -0.1650165  -0.9900990  -0.0000000), wk =   0.0005787
        k(  562) = (  -0.7013201  -0.3712871  -0.5444784), wk =   0.0023148
        k(  563) = (  -0.7425743  -0.3300330  -0.5863613), wk =   0.0023148
        k(  564) = (  -0.7838284  -0.2887789  -0.6282443), wk =   0.0023148
        k(  565) = (  -0.8250825  -0.2475248  -0.6701272), wk =   0.0023148
        k(  566) = (  -0.8663366  -0.2062706  -0.7120102), wk =   0.0023148
        k(  567) = (  -0.9075908  -0.1650165  -0.7538931), wk =   0.0023148
        k(  568) = (  -0.9488449  -0.1237624  -0.7957761), wk =   0.0023148
        k(  569) = (  -0.9900990  -0.0825083  -0.8376590), wk =   0.0011574
        k(  570) = (  -0.6600660  -0.3300330  -0.5025954), wk =   0.0011574
        k(  571) = (  -0.7013201  -0.2887789  -0.5444784), wk =   0.0023148
        k(  572) = (  -0.7425743  -0.2475248  -0.5863613), wk =   0.0023148
        k(  573) = (  -0.7838284  -0.2062706  -0.6282443), wk =   0.0023148
        k(  574) = (  -0.8250825  -0.1650165  -0.6701272), wk =   0.0023148
        k(  575) = (  -0.8663366  -0.1237624  -0.7120102), wk =   0.0023148
        k(  576) = (  -0.9075908  -0.0825083  -0.7538931), wk =   0.0023148
        k(  577) = (  -0.9488449  -0.0412541  -0.7957761), wk =   0.0023148
        k(  578) = (   0.0000000  -0.9900990   0.1675318), wk =   0.0005787
        k(  579) = (  -0.6600660  -0.2475248  -0.5025954), wk =   0.0023148
        k(  580) = (  -0.7013201  -0.2062706  -0.5444784), wk =   0.0023148
        k(  581) = (  -0.7425743  -0.1650165  -0.5863613), wk =   0.0023148
        k(  582) = (  -0.7838284  -0.1237624  -0.6282443), wk =   0.0023148
        k(  583) = (  -0.8250825  -0.0825083  -0.6701272), wk =   0.0023148
        k(  584) = (  -0.8663366  -0.0412541  -0.7120102), wk =   0.0023148
        k(  585) = (  -0.9075908   0.0000000  -0.7538931), wk =   0.0011574
        k(  586) = (  -0.6188119  -0.2062706  -0.4607125), wk =   0.0023148
        k(  587) = (  -0.6600660  -0.1650165  -0.5025954), wk =   0.0023148
        k(  588) = (  -0.7013201  -0.1237624  -0.5444784), wk =   0.0023148
        k(  589) = (  -0.7425743  -0.0825083  -0.5863613), wk =   0.0023148
        k(  590) = (  -0.7838284  -0.0412541  -0.6282443), wk =   0.0023148
        k(  591) = (  -0.8250825  -0.0000000  -0.6701272), wk =   0.0011574
        k(  592) = (  -0.5775578  -0.1650165  -0.4188295), wk =   0.0023148
        k(  593) = (  -0.6188119  -0.1237624  -0.4607125), wk =   0.0023148
        k(  594) = (  -0.6600660  -0.0825083  -0.5025954), wk =   0.0023148
        k(  595) = (  -0.7013201  -0.0412541  -0.5444784), wk =   0.0023148
        k(  596) = (  -0.7425743   0.0000000  -0.5863613), wk =   0.0011574
        k(  597) = (  -0.5363036  -0.1237624  -0.3769466), wk =   0.0023148
        k(  598) = (  -0.5775578  -0.0825083  -0.4188295), wk =   0.0023148
        k(  599) = (  -0.6188119  -0.0412541  -0.4607125), wk =   0.0023148
        k(  600) = (  -0.6600660   0.0000000  -0.5025954), wk =   0.0011574
        k(  601) = (  -0.4950495  -0.0825083  -0.3350636), wk =   0.0023148
        k(  602) = (  -0.5363036  -0.0412541  -0.3769466), wk =   0.0023148
        k(  603) = (  -0.5775578   0.0000000  -0.4188295), wk =   0.0011574
        k(  604) = (  -0.4537954  -0.0412541  -0.2931807), wk =   0.0023148
        k(  605) = (  -0.4950495   0.0000000  -0.3350636), wk =   0.0011574
        k(  606) = (  -0.4125413   0.0000000  -0.2512977), wk =   0.0011574
        k(  607) = (   0.0000000   0.0000000   0.2512977), wk =   0.0002894
        k(  608) = (  -0.2475248   0.2475248   0.0000000), wk =   0.0005787
        k(  609) = (  -0.2887789   0.2887789  -0.0418830), wk =   0.0011574
        k(  610) = (  -0.3300330   0.3300330  -0.0837659), wk =   0.0011574
        k(  611) = (  -0.3712871   0.3712871  -0.1256489), wk =   0.0011574
        k(  612) = (  -0.4125413   0.4125413  -0.1675318), wk =   0.0011574
        k(  613) = (  -0.4537954   0.4537954  -0.2094148), wk =   0.0011574
        k(  614) = (   0.4950495  -0.4950495   0.7538931), wk =   0.0011574
        k(  615) = (   0.4537954  -0.4537954   0.7120102), wk =   0.0011574
        k(  616) = (   0.4125413  -0.4125413   0.6701272), wk =   0.0011574
        k(  617) = (   0.3712871  -0.3712871   0.6282443), wk =   0.0011574
        k(  618) = (   0.3300330  -0.3300330   0.5863613), wk =   0.0011574
        k(  619) = (   0.2887789  -0.2887789   0.5444784), wk =   0.0011574
        k(  620) = (   0.2475248  -0.2475248   0.5025954), wk =   0.0011574
        k(  621) = (   0.2062706  -0.2062706   0.4607125), wk =   0.0011574
        k(  622) = (   0.1650165  -0.1650165   0.4188295), wk =   0.0011574
        k(  623) = (   0.1237624  -0.1237624   0.3769466), wk =   0.0011574
        k(  624) = (   0.0825083  -0.0825083   0.3350636), wk =   0.0011574
        k(  625) = (   0.0412541  -0.0412541   0.2931807), wk =   0.0011574
        k(  626) = (  -0.2475248   0.3300330   0.0000000), wk =   0.0011574
        k(  627) = (  -0.2887789   0.3712871  -0.0418830), wk =   0.0023148
        k(  628) = (  -0.3300330   0.4125413  -0.0837659), wk =   0.0023148
        k(  629) = (  -0.3712871   0.4537954  -0.1256489), wk =   0.0023148
        k(  630) = (  -0.4125413   0.4950495  -0.1675318), wk =   0.0023148
        k(  631) = (   0.5363036  -0.4537954   0.7957761), wk =   0.0023148
        k(  632) = (   0.4950495  -0.4125413   0.7538931), wk =   0.0023148
        k(  633) = (   0.4537954  -0.3712871   0.7120102), wk =   0.0023148
        k(  634) = (   0.4125413  -0.3300330   0.6701272), wk =   0.0023148
        k(  635) = (   0.3712871  -0.2887789   0.6282443), wk =   0.0023148
        k(  636) = (   0.3300330  -0.2475248   0.5863613), wk =   0.0023148
        k(  637) = (   0.2887789  -0.2062706   0.5444784), wk =   0.0023148
        k(  638) = (   0.2475248  -0.1650165   0.5025954), wk =   0.0023148
        k(  639) = (   0.2062706  -0.1237624   0.4607125), wk =   0.0023148
        k(  640) = (   0.1650165  -0.0825083   0.4188295), wk =   0.0023148
        k(  641) = (   0.1237624  -0.0412541   0.3769466), wk =   0.0023148
        k(  642) = (   0.0825083   0.0000000   0.3350636), wk =   0.0011574
        k(  643) = (  -0.2475248   0.4125413  -0.0000000), wk =   0.0011574
        k(  644) = (  -0.2887789   0.4537954  -0.0418830), wk =   0.0023148
        k(  645) = (  -0.3300330   0.4950495  -0.0837659), wk =   0.0023148
        k(  646) = (  -0.3712871   0.5363036  -0.1256489), wk =   0.0023148
        k(  647) = (   0.5775578  -0.4125413   0.8376590), wk =   0.0023148
        k(  648) = (   0.5363036  -0.3712871   0.7957761), wk =   0.0023148
        k(  649) = (   0.4950495  -0.3300330   0.7538931), wk =   0.0023148
        k(  650) = (   0.4537954  -0.2887789   0.7120102), wk =   0.0023148
        k(  651) = (   0.4125413  -0.2475248   0.6701272), wk =   0.0023148
        k(  652) = (   0.3712871  -0.2062706   0.6282443), wk =   0.0023148
        k(  653) = (   0.3300330  -0.1650165   0.5863613), wk =   0.0023148
        k(  654) = (   0.2887789  -0.1237624   0.5444784), wk =   0.0023148
        k(  655) = (   0.2475248  -0.0825083   0.5025954), wk =   0.0023148
        k(  656) = (   0.2062706  -0.0412541   0.4607125), wk =   0.0023148
        k(  657) = (   0.1650165  -0.0000000   0.4188295), wk =   0.0011574
        k(  658) = (  -0.2475248   0.4950495   0.0000000), wk =   0.0011574
        k(  659) = (  -0.2887789   0.5363036  -0.0418830), wk =   0.0023148
        k(  660) = (  -0.3300330   0.5775578  -0.0837659), wk =   0.0023148
        k(  661) = (   0.6188119  -0.3712871   0.8795420), wk =   0.0023148
        k(  662) = (   0.5775578  -0.3300330   0.8376590), wk =   0.0023148
        k(  663) = (   0.5363036  -0.2887789   0.7957761), wk =   0.0023148
        k(  664) = (   0.4950495  -0.2475248   0.7538931), wk =   0.0023148
        k(  665) = (   0.4537954  -0.2062706   0.7120102), wk =   0.0023148
        k(  666) = (   0.4125413  -0.1650165   0.6701272), wk =   0.0023148
        k(  667) = (   0.3712871  -0.1237624   0.6282443), wk =   0.0023148
        k(  668) = (   0.3300330  -0.0825083   0.5863613), wk =   0.0023148
        k(  669) = (   0.2887789  -0.0412541   0.5444784), wk =   0.0023148
        k(  670) = (   0.2475248   0.0000000   0.5025954), wk =   0.0011574
        k(  671) = (  -0.2475248   0.5775578   0.0000000), wk =   0.0011574
        k(  672) = (  -0.2887789   0.6188119  -0.0418830), wk =   0.0023148
        k(  673) = (   0.6600660  -0.3300330   0.9214249), wk =   0.0023148
        k(  674) = (   0.6188119  -0.2887789   0.8795420), wk =   0.0023148
        k(  675) = (   0.5775578  -0.2475248   0.8376590), wk =   0.0023148
        k(  676) = (   0.5363036  -0.2062706   0.7957761), wk =   0.0023148
        k(  677) = (   0.4950495  -0.1650165   0.7538931), wk =   0.0023148
        k(  678) = (   0.4537954  -0.1237624   0.7120102), wk =   0.0023148
        k(  679) = (   0.4125413  -0.0825083   0.6701272), wk =   0.0023148
        k(  680) = (   0.3712871  -0.0412541   0.6282443), wk =   0.0023148
        k(  681) = (   0.3300330   0.0000000   0.5863613), wk =   0.0011574
        k(  682) = (  -0.2475248   0.6600660   0.0000000), wk =   0.0011574
        k(  683) = (   0.7013201  -0.2887789   0.9633079), wk =   0.0023148
        k(  684) = (   0.6600660  -0.2475248   0.9214249), wk =   0.0023148
        k(  685) = (   0.6188119  -0.2062706   0.8795420), wk =   0.0023148
        k(  686) = (   0.5775578  -0.1650165   0.8376590), wk =   0.0023148
        k(  687) = (   0.5363036  -0.1237624   0.7957761), wk =   0.0023148
        k(  688) = (   0.4950495  -0.0825083   0.7538931), wk =   0.0023148
        k(  689) = (   0.4537954  -0.0412541   0.7120102), wk =   0.0023148
        k(  690) = (   0.4125413   0.0000000   0.6701272), wk =   0.0011574
        k(  691) = (   0.0000000   0.4950495   0.2512977), wk =   0.0011574
        k(  692) = (   0.7425743  -0.2475248   1.0051908), wk =   0.0011574
        k(  693) = (   0.7013201  -0.2062706   0.9633079), wk =   0.0023148
        k(  694) = (   0.6600660  -0.1650165   0.9214249), wk =   0.0023148
        k(  695) = (   0.6188119  -0.1237624   0.8795420), wk =   0.0023148
        k(  696) = (   0.5775578  -0.0825083   0.8376590), wk =   0.0023148
        k(  697) = (   0.5363036  -0.0412541   0.7957761), wk =   0.0023148
        k(  698) = (   0.4950495   0.0000000   0.7538931), wk =   0.0011574
        k(  699) = (   0.0412541   0.5363036   0.2931807), wk =   0.0023148
        k(  700) = (   0.0000000   0.5775578   0.2512977), wk =   0.0011574
        k(  701) = (   0.7425743  -0.1650165   1.0051908), wk =   0.0011574
        k(  702) = (   0.7013201  -0.1237624   0.9633079), wk =   0.0023148
        k(  703) = (   0.6600660  -0.0825083   0.9214249), wk =   0.0023148
        k(  704) = (   0.6188119  -0.0412541   0.8795420), wk =   0.0023148
        k(  705) = (   0.5775578   0.0000000   0.8376590), wk =   0.0011574
        k(  706) = (   0.0825083   0.5775578   0.3350636), wk =   0.0023148
        k(  707) = (   0.0412541   0.6188119   0.2931807), wk =   0.0023148
        k(  708) = (   0.0000000   0.6600660   0.2512977), wk =   0.0011574
        k(  709) = (   0.7425743  -0.0825083   1.0051908), wk =   0.0011574
        k(  710) = (   0.7013201  -0.0412541   0.9633079), wk =   0.0023148
        k(  711) = (   0.6600660  -0.0000000   0.9214249), wk =   0.0011574
        k(  712) = (  -0.8663366  -0.3712871  -0.6282443), wk =   0.0023148
        k(  713) = (  -0.9075908  -0.3300330  -0.6701272), wk =   0.0023148
        k(  714) = (  -0.9488449  -0.2887789  -0.7120102), wk =   0.0023148
        k(  715) = (  -0.9900990  -0.2475248  -0.7538931), wk =   0.0011574
        k(  716) = (  -0.2475248  -0.9900990   0.0000000), wk =   0.0005787
        k(  717) = (  -0.8250825  -0.3300330  -0.5863613), wk =   0.0023148
        k(  718) = (  -0.8663366  -0.2887789  -0.6282443), wk =   0.0023148
        k(  719) = (  -0.9075908  -0.2475248  -0.6701272), wk =   0.0023148
        k(  720) = (  -0.9488449  -0.2062706  -0.7120102), wk =   0.0023148
        k(  721) = (  -0.9900990  -0.1650165  -0.7538931), wk =   0.0011574
        k(  722) = (  -0.7838284  -0.2887789  -0.5444784), wk =   0.0023148
        k(  723) = (  -0.8250825  -0.2475248  -0.5863613), wk =   0.0023148
        k(  724) = (  -0.8663366  -0.2062706  -0.6282443), wk =   0.0023148
        k(  725) = (  -0.9075908  -0.1650165  -0.6701272), wk =   0.0023148
        k(  726) = (  -0.9488449  -0.1237624  -0.7120102), wk =   0.0023148
        k(  727) = (  -0.9900990  -0.0825083  -0.7538931), wk =   0.0011574
        k(  728) = (  -0.7425743  -0.2475248  -0.5025954), wk =   0.0011574
        k(  729) = (  -0.7838284  -0.2062706  -0.5444784), wk =   0.0023148
        k(  730) = (  -0.8250825  -0.1650165  -0.5863613), wk =   0.0023148
        k(  731) = (  -0.8663366  -0.1237624  -0.6282443), wk =   0.0023148
        k(  732) = (  -0.9075908  -0.0825083  -0.6701272), wk =   0.0023148
        k(  733) = (  -0.9488449  -0.0412541  -0.7120102), wk =   0.0023148
        k(  734) = (   0.0000000  -0.9900990   0.2512977), wk =   0.0005787
        k(  735) = (  -0.7425743  -0.1650165  -0.5025954), wk =   0.0023148
        k(  736) = (  -0.7838284  -0.1237624  -0.5444784), wk =   0.0023148
        k(  737) = (  -0.8250825  -0.0825083  -0.5863613), wk =   0.0023148
        k(  738) = (  -0.8663366  -0.0412541  -0.6282443), wk =   0.0023148
        k(  739) = (  -0.9075908  -0.0000000  -0.6701272), wk =   0.0011574
        k(  740) = (  -0.7013201  -0.1237624  -0.4607125), wk =   0.0023148
        k(  741) = (  -0.7425743  -0.0825083  -0.5025954), wk =   0.0023148
        k(  742) = (  -0.7838284  -0.0412541  -0.5444784), wk =   0.0023148
        k(  743) = (  -0.8250825   0.0000000  -0.5863613), wk =   0.0011574
        k(  744) = (  -0.6600660  -0.0825083  -0.4188295), wk =   0.0023148
        k(  745) = (  -0.7013201  -0.0412541  -0.4607125), wk =   0.0023148
        k(  746) = (  -0.7425743   0.0000000  -0.5025954), wk =   0.0011574
        k(  747) = (  -0.6188119  -0.0412541  -0.3769466), wk =   0.0023148
        k(  748) = (  -0.6600660   0.0000000  -0.4188295), wk =   0.0011574
        k(  749) = (  -0.5775578   0.0000000  -0.3350636), wk =   0.0011574
        k(  750) = (   0.0000000   0.0000000   0.3350636), wk =   0.0002894
        k(  751) = (  -0.3300330   0.3300330   0.0000000), wk =   0.0005787
        k(  752) = (  -0.3712871   0.3712871  -0.0418830), wk =   0.0011574
        k(  753) = (  -0.4125413   0.4125413  -0.0837659), wk =   0.0011574
        k(  754) = (  -0.4537954   0.4537954  -0.1256489), wk =   0.0011574
        k(  755) = (   0.4950495  -0.4950495   0.8376590), wk =   0.0011574
        k(  756) = (   0.4537954  -0.4537954   0.7957761), wk =   0.0011574
        k(  757) = (   0.4125413  -0.4125413   0.7538931), wk =   0.0011574
        k(  758) = (   0.3712871  -0.3712871   0.7120102), wk =   0.0011574
        k(  759) = (   0.3300330  -0.3300330   0.6701272), wk =   0.0011574
        k(  760) = (   0.2887789  -0.2887789   0.6282443), wk =   0.0011574
        k(  761) = (   0.2475248  -0.2475248   0.5863613), wk =   0.0011574
        k(  762) = (   0.2062706  -0.2062706   0.5444784), wk =   0.0011574
        k(  763) = (   0.1650165  -0.1650165   0.5025954), wk =   0.0011574
        k(  764) = (   0.1237624  -0.1237624   0.4607125), wk =   0.0011574
        k(  765) = (   0.0825083  -0.0825083   0.4188295), wk =   0.0011574
        k(  766) = (   0.0412541  -0.0412541   0.3769466), wk =   0.0011574
        k(  767) = (  -0.3300330   0.4125413   0.0000000), wk =   0.0011574
        k(  768) = (  -0.3712871   0.4537954  -0.0418830), wk =   0.0023148
        k(  769) = (  -0.4125413   0.4950495  -0.0837659), wk =   0.0023148
        k(  770) = (   0.5363036  -0.4537954   0.8795420), wk =   0.0023148
        k(  771) = (   0.4950495  -0.4125413   0.8376590), wk =   0.0023148
        k(  772) = (   0.4537954  -0.3712871   0.7957761), wk =   0.0023148
        k(  773) = (   0.4125413  -0.3300330   0.7538931), wk =   0.0023148
        k(  774) = (   0.3712871  -0.2887789   0.7120102), wk =   0.0023148
        k(  775) = (   0.3300330  -0.2475248   0.6701272), wk =   0.0023148
        k(  776) = (   0.2887789  -0.2062706   0.6282443), wk =   0.0023148
        k(  777) = (   0.2475248  -0.1650165   0.5863613), wk =   0.0023148
        k(  778) = (   0.2062706  -0.1237624   0.5444784), wk =   0.0023148
        k(  779) = (   0.1650165  -0.0825083   0.5025954), wk =   0.0023148
        k(  780) = (   0.1237624  -0.0412541   0.4607125), wk =   0.0023148
        k(  781) = (   0.0825083   0.0000000   0.4188295), wk =   0.0011574
        k(  782) = (  -0.3300330   0.4950495   0.0000000), wk =   0.0011574
        k(  783) = (  -0.3712871   0.5363036  -0.0418830), wk =   0.0023148
        k(  784) = (   0.5775578  -0.4125413   0.9214249), wk =   0.0023148
        k(  785) = (   0.5363036  -0.3712871   0.8795420), wk =   0.0023148
        k(  786) = (   0.4950495  -0.3300330   0.8376590), wk =   0.0023148
        k(  787) = (   0.4537954  -0.2887789   0.7957761), wk =   0.0023148
        k(  788) = (   0.4125413  -0.2475248   0.7538931), wk =   0.0023148
        k(  789) = (   0.3712871  -0.2062706   0.7120102), wk =   0.0023148
        k(  790) = (   0.3300330  -0.1650165   0.6701272), wk =   0.0023148
        k(  791) = (   0.2887789  -0.1237624   0.6282443), wk =   0.0023148
        k(  792) = (   0.2475248  -0.0825083   0.5863613), wk =   0.0023148
        k(  793) = (   0.2062706  -0.0412541   0.5444784), wk =   0.0023148
        k(  794) = (   0.1650165  -0.0000000   0.5025954), wk =   0.0011574
        k(  795) = (  -0.3300330   0.5775578   0.0000000), wk =   0.0011574
        k(  796) = (   0.6188119  -0.3712871   0.9633079), wk =   0.0023148
        k(  797) = (   0.5775578  -0.3300330   0.9214249), wk =   0.0023148
        k(  798) = (   0.5363036  -0.2887789   0.8795420), wk =   0.0023148
        k(  799) = (   0.4950495  -0.2475248   0.8376590), wk =   0.0023148
        k(  800) = (   0.4537954  -0.2062706   0.7957761), wk =   0.0023148
        k(  801) = (   0.4125413  -0.1650165   0.7538931), wk =   0.0023148
        k(  802) = (   0.3712871  -0.1237624   0.7120102), wk =   0.0023148
        k(  803) = (   0.3300330  -0.0825083   0.6701272), wk =   0.0023148
        k(  804) = (   0.2887789  -0.0412541   0.6282443), wk =   0.0023148
        k(  805) = (   0.2475248  -0.0000000   0.5863613), wk =   0.0011574
        k(  806) = (   0.6600660  -0.3300330   1.0051908), wk =   0.0011574
        k(  807) = (   0.6188119  -0.2887789   0.9633079), wk =   0.0023148
        k(  808) = (   0.5775578  -0.2475248   0.9214249), wk =   0.0023148
        k(  809) = (   0.5363036  -0.2062706   0.8795420), wk =   0.0023148
        k(  810) = (   0.4950495  -0.1650165   0.8376590), wk =   0.0023148
        k(  811) = (   0.4537954  -0.1237624   0.7957761), wk =   0.0023148
        k(  812) = (   0.4125413  -0.0825083   0.7538931), wk =   0.0023148
        k(  813) = (   0.3712871  -0.0412541   0.7120102), wk =   0.0023148
        k(  814) = (   0.3300330   0.0000000   0.6701272), wk =   0.0011574
        k(  815) = (   0.6600660  -0.2475248   1.0051908), wk =   0.0011574
        k(  816) = (   0.6188119  -0.2062706   0.9633079), wk =   0.0023148
        k(  817) = (   0.5775578  -0.1650165   0.9214249), wk =   0.0023148
        k(  818) = (   0.5363036  -0.1237624   0.8795420), wk =   0.0023148
        k(  819) = (   0.4950495  -0.0825083   0.8376590), wk =   0.0023148
        k(  820) = (   0.4537954  -0.0412541   0.7957761), wk =   0.0023148
        k(  821) = (   0.4125413  -0.0000000   0.7538931), wk =   0.0011574
        k(  822) = (   0.6600660  -0.1650165   1.0051908), wk =   0.0011574
        k(  823) = (   0.6188119  -0.1237624   0.9633079), wk =   0.0023148
        k(  824) = (   0.5775578  -0.0825083   0.9214249), wk =   0.0023148
        k(  825) = (   0.5363036  -0.0412541   0.8795420), wk =   0.0023148
        k(  826) = (   0.4950495  -0.0000000   0.8376590), wk =   0.0011574
        k(  827) = (   0.6600660  -0.0825083   1.0051908), wk =   0.0011574
        k(  828) = (   0.6188119  -0.0412541   0.9633079), wk =   0.0023148
        k(  829) = (   0.5775578   0.0000000   0.9214249), wk =   0.0011574
        k(  830) = (  -0.9900990  -0.3300330  -0.6701272), wk =   0.0011574
        k(  831) = (  -0.3300330  -0.9900990   0.0000000), wk =   0.0005787
        k(  832) = (  -0.9488449  -0.2887789  -0.6282443), wk =   0.0023148
        k(  833) = (  -0.9900990  -0.2475248  -0.6701272), wk =   0.0011574
        k(  834) = (  -0.9075908  -0.2475248  -0.5863613), wk =   0.0023148
        k(  835) = (  -0.9488449  -0.2062706  -0.6282443), wk =   0.0023148
        k(  836) = (  -0.9900990  -0.1650165  -0.6701272), wk =   0.0011574
        k(  837) = (  -0.8663366  -0.2062706  -0.5444784), wk =   0.0023148
        k(  838) = (  -0.9075908  -0.1650165  -0.5863613), wk =   0.0023148
        k(  839) = (  -0.9488449  -0.1237624  -0.6282443), wk =   0.0023148
        k(  840) = (  -0.9900990  -0.0825083  -0.6701272), wk =   0.0011574
        k(  841) = (  -0.8250825  -0.1650165  -0.5025954), wk =   0.0011574
        k(  842) = (  -0.8663366  -0.1237624  -0.5444784), wk =   0.0023148
        k(  843) = (  -0.9075908  -0.0825083  -0.5863613), wk =   0.0023148
        k(  844) = (  -0.9488449  -0.0412541  -0.6282443), wk =   0.0023148
        k(  845) = (  -0.0000000  -0.9900990   0.3350636), wk =   0.0005787
        k(  846) = (  -0.8250825  -0.0825083  -0.5025954), wk =   0.0023148
        k(  847) = (  -0.8663366  -0.0412541  -0.5444784), wk =   0.0023148
        k(  848) = (  -0.9075908   0.0000000  -0.5863613), wk =   0.0011574
        k(  849) = (  -0.7838284  -0.0412541  -0.4607125), wk =   0.0023148
        k(  850) = (  -0.8250825   0.0000000  -0.5025954), wk =   0.0011574
        k(  851) = (  -0.7425743   0.0000000  -0.4188295), wk =   0.0011574
        k(  852) = (   0.0000000   0.0000000   0.4188295), wk =   0.0002894
        k(  853) = (  -0.4125413   0.4125413   0.0000000), wk =   0.0005787
        k(  854) = (  -0.4537954   0.4537954  -0.0418830), wk =   0.0011574
        k(  855) = (   0.4950495  -0.4950495   0.9214249), wk =   0.0011574
        k(  856) = (   0.4537954  -0.4537954   0.8795420), wk =   0.0011574
        k(  857) = (   0.4125413  -0.4125413   0.8376590), wk =   0.0011574
        k(  858) = (   0.3712871  -0.3712871   0.7957761), wk =   0.0011574
        k(  859) = (   0.3300330  -0.3300330   0.7538931), wk =   0.0011574
        k(  860) = (   0.2887789  -0.2887789   0.7120102), wk =   0.0011574
        k(  861) = (   0.2475248  -0.2475248   0.6701272), wk =   0.0011574
        k(  862) = (   0.2062706  -0.2062706   0.6282443), wk =   0.0011574
        k(  863) = (   0.1650165  -0.1650165   0.5863613), wk =   0.0011574
        k(  864) = (   0.1237624  -0.1237624   0.5444784), wk =   0.0011574
        k(  865) = (   0.0825083  -0.0825083   0.5025954), wk =   0.0011574
        k(  866) = (   0.0412541  -0.0412541   0.4607125), wk =   0.0011574
        k(  867) = (  -0.4125413   0.4950495   0.0000000), wk =   0.0011574
        k(  868) = (   0.5363036  -0.4537954   0.9633079), wk =   0.0023148
        k(  869) = (   0.4950495  -0.4125413   0.9214249), wk =   0.0023148
        k(  870) = (   0.4537954  -0.3712871   0.8795420), wk =   0.0023148
        k(  871) = (   0.4125413  -0.3300330   0.8376590), wk =   0.0023148
        k(  872) = (   0.3712871  -0.2887789   0.7957761), wk =   0.0023148
        k(  873) = (   0.3300330  -0.2475248   0.7538931), wk =   0.0023148
        k(  874) = (   0.2887789  -0.2062706   0.7120102), wk =   0.0023148
        k(  875) = (   0.2475248  -0.1650165   0.6701272), wk =   0.0023148
        k(  876) = (   0.2062706  -0.1237624   0.6282443), wk =   0.0023148
        k(  877) = (   0.1650165  -0.0825083   0.5863613), wk =   0.0023148
        k(  878) = (   0.1237624  -0.0412541   0.5444784), wk =   0.0023148
        k(  879) = (   0.0825083   0.0000000   0.5025954), wk =   0.0011574
        k(  880) = (   0.5775578  -0.4125413   1.0051908), wk =   0.0011574
        k(  881) = (   0.5363036  -0.3712871   0.9633079), wk =   0.0023148
        k(  882) = (   0.4950495  -0.3300330   0.9214249), wk =   0.0023148
        k(  883) = (   0.4537954  -0.2887789   0.8795420), wk =   0.0023148
        k(  884) = (   0.4125413  -0.2475248   0.8376590), wk =   0.0023148
        k(  885) = (   0.3712871  -0.2062706   0.7957761), wk =   0.0023148
        k(  886) = (   0.3300330  -0.1650165   0.7538931), wk =   0.0023148
        k(  887) = (   0.2887789  -0.1237624   0.7120102), wk =   0.0023148
        k(  888) = (   0.2475248  -0.0825083   0.6701272), wk =   0.0023148
        k(  889) = (   0.2062706  -0.0412541   0.6282443), wk =   0.0023148
        k(  890) = (   0.1650165  -0.0000000   0.5863613), wk =   0.0011574
        k(  891) = (   0.5775578  -0.3300330   1.0051908), wk =   0.0011574
        k(  892) = (   0.5363036  -0.2887789   0.9633079), wk =   0.0023148
        k(  893) = (   0.4950495  -0.2475248   0.9214249), wk =   0.0023148
        k(  894) = (   0.4537954  -0.2062706   0.8795420), wk =   0.0023148
        k(  895) = (   0.4125413  -0.1650165   0.8376590), wk =   0.0023148
        k(  896) = (   0.3712871  -0.1237624   0.7957761), wk =   0.0023148
        k(  897) = (   0.3300330  -0.0825083   0.7538931), wk =   0.0023148
        k(  898) = (   0.2887789  -0.0412541   0.7120102), wk =   0.0023148
        k(  899) = (   0.2475248   0.0000000   0.6701272), wk =   0.0011574
        k(  900) = (   0.5775578  -0.2475248   1.0051908), wk =   0.0011574
        k(  901) = (   0.5363036  -0.2062706   0.9633079), wk =   0.0023148
        k(  902) = (   0.4950495  -0.1650165   0.9214249), wk =   0.0023148
        k(  903) = (   0.4537954  -0.1237624   0.8795420), wk =   0.0023148
        k(  904) = (   0.4125413  -0.0825083   0.8376590), wk =   0.0023148
        k(  905) = (   0.3712871  -0.0412541   0.7957761), wk =   0.0023148
        k(  906) = (   0.3300330   0.0000000   0.7538931), wk =   0.0011574
        k(  907) = (   0.5775578  -0.1650165   1.0051908), wk =   0.0011574
        k(  908) = (   0.5363036  -0.1237624   0.9633079), wk =   0.0023148
        k(  909) = (   0.4950495  -0.0825083   0.9214249), wk =   0.0023148
        k(  910) = (   0.4537954  -0.0412541   0.8795420), wk =   0.0023148
        k(  911) = (   0.4125413  -0.0000000   0.8376590), wk =   0.0011574
        k(  912) = (   0.5775578  -0.0825083   1.0051908), wk =   0.0011574
        k(  913) = (   0.5363036  -0.0412541   0.9633079), wk =   0.0023148
        k(  914) = (   0.4950495   0.0000000   0.9214249), wk =   0.0011574
        k(  915) = (  -0.4125413  -0.9900990  -0.0000000), wk =   0.0005787
        k(  916) = (  -0.9900990  -0.1650165  -0.5863613), wk =   0.0011574
        k(  917) = (  -0.9488449  -0.1237624  -0.5444784), wk =   0.0023148
        k(  918) = (  -0.9900990  -0.0825083  -0.5863613), wk =   0.0011574
        k(  919) = (  -0.9075908  -0.0825083  -0.5025954), wk =   0.0011574
        k(  920) = (  -0.9488449  -0.0412541  -0.5444784), wk =   0.0023148
        k(  921) = (   0.0000000  -0.9900990   0.4188295), wk =   0.0005787
        k(  922) = (  -0.9075908   0.0000000  -0.5025954), wk =   0.0011574
        k(  923) = (   0.0000000   0.0000000   0.5025954), wk =   0.0002894
        k(  924) = (   0.4950495  -0.4950495   1.0051908), wk =   0.0005787
        k(  925) = (   0.4537954  -0.4537954   0.9633079), wk =   0.0011574
        k(  926) = (   0.4125413  -0.4125413   0.9214249), wk =   0.0011574
        k(  927) = (   0.3712871  -0.3712871   0.8795420), wk =   0.0011574
        k(  928) = (   0.3300330  -0.3300330   0.8376590), wk =   0.0011574
        k(  929) = (   0.2887789  -0.2887789   0.7957761), wk =   0.0011574
        k(  930) = (   0.2475248  -0.2475248   0.7538931), wk =   0.0011574
        k(  931) = (   0.2062706  -0.2062706   0.7120102), wk =   0.0011574
        k(  932) = (   0.1650165  -0.1650165   0.6701272), wk =   0.0011574
        k(  933) = (   0.1237624  -0.1237624   0.6282443), wk =   0.0011574
        k(  934) = (   0.0825083  -0.0825083   0.5863613), wk =   0.0011574
        k(  935) = (   0.0412541  -0.0412541   0.5444784), wk =   0.0011574
        k(  936) = (   0.4950495  -0.4125413   1.0051908), wk =   0.0011574
        k(  937) = (   0.4537954  -0.3712871   0.9633079), wk =   0.0023148
        k(  938) = (   0.4125413  -0.3300330   0.9214249), wk =   0.0023148
        k(  939) = (   0.3712871  -0.2887789   0.8795420), wk =   0.0023148
        k(  940) = (   0.3300330  -0.2475248   0.8376590), wk =   0.0023148
        k(  941) = (   0.2887789  -0.2062706   0.7957761), wk =   0.0023148
        k(  942) = (   0.2475248  -0.1650165   0.7538931), wk =   0.0023148
        k(  943) = (   0.2062706  -0.1237624   0.7120102), wk =   0.0023148
        k(  944) = (   0.1650165  -0.0825083   0.6701272), wk =   0.0023148
        k(  945) = (   0.1237624  -0.0412541   0.6282443), wk =   0.0023148
        k(  946) = (   0.0825083   0.0000000   0.5863613), wk =   0.0011574
        k(  947) = (   0.4950495  -0.3300330   1.0051908), wk =   0.0011574
        k(  948) = (   0.4537954  -0.2887789   0.9633079), wk =   0.0023148
        k(  949) = (   0.4125413  -0.2475248   0.9214249), wk =   0.0023148
        k(  950) = (   0.3712871  -0.2062706   0.8795420), wk =   0.0023148
        k(  951) = (   0.3300330  -0.1650165   0.8376590), wk =   0.0023148
        k(  952) = (   0.2887789  -0.1237624   0.7957761), wk =   0.0023148
        k(  953) = (   0.2475248  -0.0825083   0.7538931), wk =   0.0023148
        k(  954) = (   0.2062706  -0.0412541   0.7120102), wk =   0.0023148
[...]

     occupation numbers 
     1.0000   1.0000   1.0000   1.0000   0.0000   0.0000   0.0000   0.0000
     0.0000   0.0000   0.0000   0.0000   0.0000   0.0000   0.0000   0.0000
     0.0000   0.0000   0.0000   0.0000   0.0000   0.0000   0.0000   0.0000

          k = 0.2475 0.0000 0.9214 (  1086 PWs)   bands (ev):

    -2.8072   0.4915   3.5448   3.8120  11.1234  11.5099  17.7187  19.0287
    20.8344  24.4642  25.2109  27.8350  30.1689  31.0569  31.7849  33.2775
    35.0292  35.8512  37.0009  38.0808  40.6110  41.4142  43.1625  44.4138

     occupation numbers 
     1.0000   1.0000   1.0000   1.0000   0.0000   0.0000   0.0000   0.0000
     0.0000   0.0000   0.0000   0.0000   0.0000   0.0000   0.0000   0.0000
     0.0000   0.0000   0.0000   0.0000   0.0000   0.0000   0.0000   0.0000

          k =-0.6601-0.9901 0.0000 (  1086 PWs)   bands (ev):

    -2.5994   0.4148   3.2373   3.4264  12.1104  12.3336  17.2467  17.5286
    20.8882  24.5516  24.6424  28.0353  31.3445  32.0121  32.1005  33.0917
    34.3143  34.9750  37.8931  39.4284  41.2096  41.7732  42.6078  43.4445

     occupation numbers 
     1.0000   1.0000   1.0000   1.0000   0.0000   0.0000   0.0000   0.0000
     0.0000   0.0000   0.0000   0.0000   0.0000   0.0000   0.0000   0.0000
     0.0000   0.0000   0.0000   0.0000   0.0000   0.0000   0.0000   0.0000

          k = 0.0000 0.0000 0.7539 (  1082 PWs)   bands (ev):

    -3.9813   1.8075   4.6424   4.6424   9.5053  10.9343  18.5493  18.5493
    20.7685  25.1124  25.5434  28.4065  28.4065  30.3771  30.3771  30.7037
    31.9610  34.2671  40.8000  40.8000  40.8911  42.9866  45.7594  46.8172

     occupation numbers 
     1.0000   1.0000   1.0000   1.0000   0.0000   0.0000   0.0000   0.0000
     0.0000   0.0000   0.0000   0.0000   0.0000   0.0000   0.0000   0.0000
     0.0000   0.0000   0.0000   0.0000   0.0000   0.0000   0.0000   0.0000

          k = 0.2475-0.2475 1.0052 (  1099 PWs)   bands (ev):

    -2.7674   0.4658   2.4736   4.8759  10.3713  13.9095  17.8159  18.4120
    19.2307  22.0807  25.7378  28.4932  30.3952  31.5835  32.8655  33.0593
    36.3535  36.3759  36.8803  38.8466  39.8292  41.8281  43.8860  44.1294

     occupation numbers 
     1.0000   1.0000   1.0000   1.0000   0.0000   0.0000   0.0000   0.0000
     0.0000   0.0000   0.0000   0.0000   0.0000   0.0000   0.0000   0.0000
     0.0000   0.0000   0.0000   0.0000   0.0000   0.0000   0.0000   0.0000

          k = 0.2063-0.2063 0.9633 (  1092 PWs)   bands (ev):

    -2.7327   0.4004   2.7443   4.7090  10.1957  12.9312  18.2945  18.6219
    19.9400  22.8759  25.6286  28.6947  29.7603  31.7657  32.2828  33.2070
    35.3743  36.1905  37.4561  38.4353  39.2118  41.8361  43.1296  44.7455

     occupation numbers 
     1.0000   1.0000   1.0000   1.0000   0.0000   0.0000   0.0000   0.0000
     0.0000   0.0000   0.0000   0.0000   0.0000   0.0000   0.0000   0.0000
     0.0000   0.0000   0.0000   0.0000   0.0000   0.0000   0.0000   0.0000

          k = 0.1650-0.1650 0.9214 (  1093 PWs)   bands (ev):

    -2.8435   0.4639   3.1469   4.5911  10.0651  12.0368  18.6421  18.7435
    20.6226  23.8114  25.5135  28.6106  28.9124  31.3057  31.8959  34.2507
    34.3561  35.6089  37.3855  38.5042  39.1098  41.3821  43.3878  45.7650

     occupation numbers 
     1.0000   1.0000   1.0000   1.0000   0.0000   0.0000   0.0000   0.0000
     0.0000   0.0000   0.0000   0.0000   0.0000   0.0000   0.0000   0.0000
     0.0000   0.0000   0.0000   0.0000   0.0000   0.0000   0.0000   0.0000

          k = 0.1238-0.1238 0.8795 (  1094 PWs)   bands (ev):

    -3.0719   0.6725   3.6092   4.5247   9.9543  11.3008  18.8323  18.8592
    21.0756  24.7764  25.4936  28.0963  28.4064  30.8382  31.6082  33.1234
    34.5799  35.8915  36.4992  38.8802  39.7083  41.2998  43.9643  46.3373

     occupation numbers 
     1.0000   1.0000   1.0000   1.0000   0.0000   0.0000   0.0000   0.0000
     0.0000   0.0000   0.0000   0.0000   0.0000   0.0000   0.0000   0.0000
     0.0000   0.0000   0.0000   0.0000   0.0000   0.0000   0.0000   0.0000

          k = 0.0825-0.0825 0.8377 (  1094 PWs)   bands (ev):

    -3.3652   0.9927   4.0640   4.5111   9.7971  10.8466  18.8720  18.9333
    21.1895  25.4801  25.6117  27.6423  28.2001  30.5328  31.4017  32.0998
    33.4958  35.1886  37.7873  39.4404  40.2884  41.5564  44.7230  46.4499

     occupation numbers 
     1.0000   1.0000   1.0000   1.0000   0.0000   0.0000   0.0000   0.0000
     0.0000   0.0000   0.0000   0.0000   0.0000   0.0000   0.0000   0.0000
     0.0000   0.0000   0.0000   0.0000   0.0000   0.0000   0.0000   0.0000

          k = 0.0413-0.0413 0.7958 (  1085 PWs)   bands (ev):

    -3.6781   1.3838   4.4331   4.5505   9.5889  10.7557  18.8083  18.8378
    21.0218  25.4804  25.7054  27.9268  28.1615  30.4238  31.0215  31.5930
    32.0597  34.5956  39.3980  40.1023  40.6572  42.1425  45.5297  46.5956

     occupation numbers 
     1.0000   1.0000   1.0000   1.0000   0.0000   0.0000   0.0000   0.0000
     0.0000   0.0000   0.0000   0.0000   0.0000   0.0000   0.0000   0.0000
     0.0000   0.0000   0.0000   0.0000   0.0000   0.0000   0.0000   0.0000

          k = 0.2475-0.1650 1.0052 (  1098 PWs)   bands (ev):

    -2.6854   0.3778   2.7300   4.5846  10.3584  12.9327  18.1448  18.6094
    19.9737  22.9605  25.5915  28.6490  30.1650  31.6711  32.4011  32.9482
    35.2672  36.6383  36.9801  38.4377  39.4921  41.9641  43.0371  44.3107

     occupation numbers 
     1.0000   1.0000   1.0000   1.0000   0.0000   0.0000   0.0000   0.0000
     0.0000   0.0000   0.0000   0.0000   0.0000   0.0000   0.0000   0.0000
     0.0000   0.0000   0.0000   0.0000   0.0000   0.0000   0.0000   0.0000

          k = 0.2063-0.1238 0.9633 (  1098 PWs)   bands (ev):

    -2.7060   0.3407   3.0978   4.4481  10.2132  12.0059  18.5283  19.0160
    20.5129  23.7523  25.4926  28.4618  29.7044  31.3515  31.9210  33.7265
    34.5012  36.3024  37.2206  38.0278  39.1038  41.2828  43.1941  45.0348

     occupation numbers 
     1.0000   1.0000   1.0000   1.0000   0.0000   0.0000   0.0000   0.0000
     0.0000   0.0000   0.0000   0.0000   0.0000   0.0000   0.0000   0.0000
     0.0000   0.0000   0.0000   0.0000   0.0000   0.0000   0.0000   0.0000

          k = 0.1650-0.0825 0.9214 (  1093 PWs)   bands (ev):

    -2.8551   0.4403   3.5435   4.3648  10.0994  11.2219  18.7335  19.3191
    20.9732  24.6040  25.4852  28.0340  29.0033  31.0748  31.5198  33.5239
    35.0271  35.7390  36.8623  37.7478  39.4567  40.8188  43.8328  45.6094

     occupation numbers 
     1.0000   1.0000   1.0000   1.0000   0.0000   0.0000   0.0000   0.0000
     0.0000   0.0000   0.0000   0.0000   0.0000   0.0000   0.0000   0.0000
     0.0000   0.0000   0.0000   0.0000   0.0000   0.0000   0.0000   0.0000

          k = 0.1238-0.0413 0.8795 (  1095 PWs)   bands (ev):

    -3.0972   0.6728   3.9866   4.3378   9.9427  10.7137  18.8603  19.4085
    21.2094  25.2862  25.7015  27.6503  28.3335  30.9674  31.1989  32.6003
    34.4850  35.7316  36.8915  38.2743  39.9920  40.8090  44.6054  45.9231

     occupation numbers 
     1.0000   1.0000   1.0000   1.0000   0.0000   0.0000   0.0000   0.0000
     0.0000   0.0000   0.0000   0.0000   0.0000   0.0000   0.0000   0.0000
     0.0000   0.0000   0.0000   0.0000   0.0000   0.0000   0.0000   0.0000

          k = 0.0825-0.0000 0.8377 (  1090 PWs)   bands (ev):

    -3.3840   1.0010   4.3212   4.3886   9.7011  10.6018  18.9055  19.2483
    21.1851  25.6219  25.8449  27.6379  27.9798  30.8698  31.1079  31.7781
    33.1728  35.0323  38.3425  39.0824  40.3009  41.3125  45.2874  46.2216

     occupation numbers 
     1.0000   1.0000   1.0000   1.0000   0.0000   0.0000   0.0000   0.0000
     0.0000   0.0000   0.0000   0.0000   0.0000   0.0000   0.0000   0.0000
     0.0000   0.0000   0.0000   0.0000   0.0000   0.0000   0.0000   0.0000

          k = 0.2475-0.0825 1.0052 (  1093 PWs)   bands (ev):

    -2.6420   0.3216   3.1263   4.1363  10.6841  12.0386  18.2511  18.6511
    20.6692  23.9806  25.2996  28.1816  30.5315  31.3160  32.1404  33.4376
    34.3311  35.8713  37.3593  38.4559  39.7057  41.4038  42.9626  44.2113

     occupation numbers 
     1.0000   1.0000   1.0000   1.0000   0.0000   0.0000   0.0000   0.0000
     0.0000   0.0000   0.0000   0.0000   0.0000   0.0000   0.0000   0.0000
     0.0000   0.0000   0.0000   0.0000   0.0000   0.0000   0.0000   0.0000

          k = 0.2063-0.0413 0.9633 (  1089 PWs)   bands (ev):

    -2.6963   0.3083   3.5435   4.0355  10.5638  11.2153  18.5687  19.1982
    20.9459  24.6209  25.2578  27.8553  29.9275  31.0340  31.9144  33.6442
    34.5395  35.8795  37.0917  37.7407  39.6547  40.5313  43.6378  44.6473

     occupation numbers 
     1.0000   1.0000   1.0000   1.0000   0.0000   0.0000   0.0000   0.0000
     0.0000   0.0000   0.0000   0.0000   0.0000   0.0000   0.0000   0.0000
     0.0000   0.0000   0.0000   0.0000   0.0000   0.0000   0.0000   0.0000

          k = 0.1650 0.0000 0.9214 (  1092 PWs)   bands (ev):

    -2.8601   0.4313   3.9185   4.0450  10.3270  10.7366  18.7425  19.5259
    21.1182  25.0103  25.4972  27.6405  29.0462  30.9209  31.5954  33.1071
    35.5102  35.8009  36.5780  37.2880  40.0358  40.2046  44.2743  45.1883

     occupation numbers 
     1.0000   1.0000   1.0000   1.0000   0.0000   0.0000   0.0000   0.0000
     0.0000   0.0000   0.0000   0.0000   0.0000   0.0000   0.0000   0.0000
     0.0000   0.0000   0.0000   0.0000   0.0000   0.0000   0.0000   0.0000

          k =-0.7426-0.9901-0.0000 (  1084 PWs)   bands (ev):

    -2.6287   0.3022   3.5631   3.6752  11.2178  11.3221  18.2800  18.6505
    20.9547  24.7743  24.8461  27.8493  30.7593  31.2887  31.9791  33.4741
    34.3053  35.3153  37.5007  38.4477  40.1115  40.8488  43.1764  43.9640

     occupation numbers 
     1.0000   1.0000   1.0000   1.0000   0.0000   0.0000   0.0000   0.0000
     0.0000   0.0000   0.0000   0.0000   0.0000   0.0000   0.0000   0.0000
     0.0000   0.0000   0.0000   0.0000   0.0000   0.0000   0.0000   0.0000

          k = 0.0000 0.0000 0.8377 (  1086 PWs)   bands (ev):

    -3.4041   1.0045   4.4456   4.4456   9.4939  10.4266  19.2580  19.2580
    21.1709  25.9261  26.0136  27.6333  27.6333  30.6979  31.7044  31.7044
    32.1998  34.9022  39.2794  39.2794  39.3043  41.0944  46.4471  46.4471

     occupation numbers 
     1.0000   1.0000   1.0000   1.0000   0.0000   0.0000   0.0000   0.0000
     0.0000   0.0000   0.0000   0.0000   0.0000   0.0000   0.0000   0.0000
     0.0000   0.0000   0.0000   0.0000   0.0000   0.0000   0.0000   0.0000

          k = 0.1650-0.1650 1.0052 (  1094 PWs)   bands (ev):

    -2.6663   0.2845   3.0603   4.5532  10.0312  11.9737  18.8511  19.1005
    20.3963  23.5859  25.5773  28.8069  29.4553  31.2978  32.0184  33.3698
    34.9535  36.6032  37.2769  37.7047  38.5358  41.1503  43.2105  45.4242

     occupation numbers 
     1.0000   1.0000   1.0000   1.0000   0.0000   0.0000   0.0000   0.0000
     0.0000   0.0000   0.0000   0.0000   0.0000   0.0000   0.0000   0.0000
     0.0000   0.0000   0.0000   0.0000   0.0000   0.0000   0.0000   0.0000

          k = 0.1238-0.1238 0.9633 (  1092 PWs)   bands (ev):

    -2.7184   0.2699   3.4822   4.4474   9.9144  11.1410  19.2412  19.3468
    20.9179  24.4514  25.5699  28.4332  28.8096  30.6612  32.0237  34.2746
    34.4082  36.0454  37.1771  37.5675  38.2599  40.3295  43.8869  46.2352

     occupation numbers 
     1.0000   1.0000   1.0000   1.0000   0.0000   0.0000   0.0000   0.0000
     0.0000   0.0000   0.0000   0.0000   0.0000   0.0000   0.0000   0.0000
     0.0000   0.0000   0.0000   0.0000   0.0000   0.0000   0.0000   0.0000

          k = 0.0825-0.0825 0.9214 (  1095 PWs)   bands (ev):

    -2.8856   0.4018   3.9148   4.3936   9.8040  10.5335  19.4498  19.4594
    21.2592  25.3768  25.7064  27.9320  28.0036  30.3604  31.9381  33.4010
    34.8375  35.9948  36.3742  37.9114  38.7297  40.0378  44.7566  46.2944

     occupation numbers 
     1.0000   1.0000   1.0000   1.0000   0.0000   0.0000   0.0000   0.0000
     0.0000   0.0000   0.0000   0.0000   0.0000   0.0000   0.0000   0.0000
     0.0000   0.0000   0.0000   0.0000   0.0000   0.0000   0.0000   0.0000

          k = 0.0413-0.0413 0.8795 (  1089 PWs)   bands (ev):

    -3.1291   0.6610   4.2649   4.3930   9.6154  10.3150  19.4507  19.4615
    21.3103  25.9676  26.0611  27.4459  27.5537  30.3383  31.8827  32.5076
    33.5377  35.4334  37.7021  38.5238  39.1239  40.3176  45.6514  46.3576

     occupation numbers 
     1.0000   1.0000   1.0000   1.0000   0.0000   0.0000   0.0000   0.0000
     0.0000   0.0000   0.0000   0.0000   0.0000   0.0000   0.0000   0.0000
     0.0000   0.0000   0.0000   0.0000   0.0000   0.0000   0.0000   0.0000

          k = 0.1650-0.0825 1.0052 (  1092 PWs)   bands (ev):

    -2.6610   0.2223   3.4831   4.3217  10.0848  11.1376  19.1121  19.3721
    20.9090  24.4697  25.4886  28.1238  29.4277  30.5602  32.3053  34.0092
    34.4048  36.2573  37.0107  37.5175  38.5368  40.1766  43.8466  45.4358

     occupation numbers 
     1.0000   1.0000   1.0000   1.0000   0.0000   0.0000   0.0000   0.0000
     0.0000   0.0000   0.0000   0.0000   0.0000   0.0000   0.0000   0.0000
     0.0000   0.0000   0.0000   0.0000   0.0000   0.0000   0.0000   0.0000

          k = 0.1238-0.0413 0.9633 (  1091 PWs)   bands (ev):

    -2.7276   0.2310   3.8936   4.2491   9.9863  10.4675  19.3839  19.6687
    21.2232  25.2460  25.6130  27.6456  28.7249  30.0680  32.5053  33.7677
    35.1802  35.8425  36.7739  37.0230  38.6194  39.4431  44.7360  45.6986

     occupation numbers 
     1.0000   1.0000   1.0000   1.0000   0.0000   0.0000   0.0000   0.0000
     0.0000   0.0000   0.0000   0.0000   0.0000   0.0000   0.0000   0.0000
     0.0000   0.0000   0.0000   0.0000   0.0000   0.0000   0.0000   0.0000

          k = 0.0825 0.0000 0.9214 (  1094 PWs)   bands (ev):

    -2.8967   0.3877   4.2123   4.2460   9.7747  10.2189  19.4867  19.7206
    21.3565  25.7638  26.0015  27.3410  27.9116  30.0091  32.3926  33.1169
    34.6203  36.0350  36.6700  37.5277  38.8389  39.5634  45.4785  45.9675

     occupation numbers 
     1.0000   1.0000   1.0000   1.0000   0.0000   0.0000   0.0000   0.0000
     0.0000   0.0000   0.0000   0.0000   0.0000   0.0000   0.0000   0.0000
     0.0000   0.0000   0.0000   0.0000   0.0000   0.0000   0.0000   0.0000

          k =-0.8251-0.9901-0.0000 (  1086 PWs)   bands (ev):

    -2.6603   0.2005   3.9082   3.9581  10.4686  10.4957  19.1595  19.4649
    21.1372  25.2053  25.2135  27.6169  29.5433  30.2377  32.5715  33.7806
    34.7824  35.6936  37.1739  37.1904  39.2185  39.3260  44.4768  44.8886

     occupation numbers 
     1.0000   1.0000   1.0000   1.0000   0.0000   0.0000   0.0000   0.0000
     0.0000   0.0000   0.0000   0.0000   0.0000   0.0000   0.0000   0.0000
     0.0000   0.0000   0.0000   0.0000   0.0000   0.0000   0.0000   0.0000

          k = 0.0000 0.0000 0.9214 (  1086 PWs)   bands (ev):

    -2.9097   0.3720   4.3269   4.3269   9.5731  10.0340  19.7680  19.7680
    21.4333  26.2473  26.7391  27.0156  27.0156  29.6151  33.1368  33.1368
    33.7481  35.9167  37.6515  37.7214  37.7214  39.2740  46.3083  46.3083

     occupation numbers 
     1.0000   1.0000   1.0000   1.0000   0.0000   0.0000   0.0000   0.0000
     0.0000   0.0000   0.0000   0.0000   0.0000   0.0000   0.0000   0.0000
     0.0000   0.0000   0.0000   0.0000   0.0000   0.0000   0.0000   0.0000

          k = 0.0825-0.0825 1.0052 (  1088 PWs)   bands (ev):

    -2.6774   0.1555   3.8654   4.3544   9.8219  10.4133  19.6474  19.7031
    21.2434  25.2478  25.7136  27.8401  28.4571  29.7225  32.8735  34.2013
    34.8760  35.9708  37.0470  37.0500  37.6756  39.1338  44.8113  46.2553

     occupation numbers 
     1.0000   1.0000   1.0000   1.0000   0.0000   0.0000   0.0000   0.0000
     0.0000   0.0000   0.0000   0.0000   0.0000   0.0000   0.0000   0.0000
     0.0000   0.0000   0.0000   0.0000   0.0000   0.0000   0.0000   0.0000

          k = 0.0413-0.0413 0.9633 (  1088 PWs)   bands (ev):

    -2.7457   0.1889   4.1809   4.3140   9.7231   9.9995  19.8289  19.8382
    21.4419  26.0129  26.1251  27.2427  27.7008  29.4025  33.2361  33.7782
    34.8892  36.1976  36.5724  37.1536  37.6996  38.7069  45.7349  46.2784

     occupation numbers 
     1.0000   1.0000   1.0000   1.0000   0.0000   0.0000   0.0000   0.0000
     0.0000   0.0000   0.0000   0.0000   0.0000   0.0000   0.0000   0.0000
     0.0000   0.0000   0.0000   0.0000   0.0000   0.0000   0.0000   0.0000

          k =-0.9076-0.9901-0.0000 (  1094 PWs)   bands (ev):

    -2.6838   0.1321   4.1811   4.1934   9.9358   9.9546  19.7513  19.8591
    21.4001  25.7784  25.9323  27.2407  28.2539  29.3788  33.3350  33.9242
    35.4855  35.6336  36.6399  36.9456  37.9479  38.4505  45.6322  45.8258

     occupation numbers 
     1.0000   1.0000   1.0000   1.0000   0.0000   0.0000   0.0000   0.0000
     0.0000   0.0000   0.0000   0.0000   0.0000   0.0000   0.0000   0.0000
     0.0000   0.0000   0.0000   0.0000   0.0000   0.0000   0.0000   0.0000

          k = 0.0000 0.0000-1.0052 (  1098 PWs)   bands (ev):

    -2.6925   0.1082   4.2872   4.2872   9.7340   9.7684  19.9590  19.9590
    21.5249  26.3139  26.7838  26.7838  27.2054  29.0588  33.9707  33.9707
    34.7880  36.5766  36.8387  36.8387  36.8647  38.0510  46.2747  46.2747

     occupation numbers 
     1.0000   1.0000   1.0000   1.0000   0.0000   0.0000   0.0000   0.0000
     0.0000   0.0000   0.0000   0.0000   0.0000   0.0000   0.0000   0.0000
     0.0000   0.0000   0.0000   0.0000   0.0000   0.0000   0.0000   0.0000

     the Fermi energy is     8.8897 ev

     Writing output data file BAs.save/

     init_run     :      0.17s CPU      0.18s WALL (       1 calls)
     electrons    :    144.05s CPU    146.94s WALL (       1 calls)

     Called by init_run:
     wfcinit      :      0.00s CPU      0.00s WALL (       1 calls)
     wfcinit:atom :      0.09s CPU      0.09s WALL (     266 calls)
     wfcinit:wfcr :      5.75s CPU      5.80s WALL (     266 calls)
     potinit      :      0.01s CPU      0.01s WALL (       1 calls)
     hinit0       :      0.15s CPU      0.15s WALL (       1 calls)

     Called by electrons:
     c_bands      :    143.59s CPU    146.48s WALL (       1 calls)
     v_of_rho     :      0.00s CPU      0.00s WALL (       1 calls)
     v_h          :      0.00s CPU      0.00s WALL (       1 calls)
     v_xc         :      0.00s CPU      0.00s WALL (       1 calls)

     Called by c_bands:
     init_us_2    :      0.05s CPU      0.05s WALL (     266 calls)
     cegterg      :    130.91s CPU    131.91s WALL (     431 calls)

     Called by sum_band:

     Called by *egterg:
     h_psi        :     74.73s CPU     75.36s WALL (    7097 calls)
     g_psi        :      0.42s CPU      0.42s WALL (    6400 calls)
     cdiaghg      :     14.54s CPU     14.64s WALL (    6666 calls)
     cegterg:over :     19.84s CPU     19.96s WALL (    6400 calls)
     cegterg:upda :     14.96s CPU     15.06s WALL (    6400 calls)
     cegterg:last :      9.98s CPU     10.05s WALL (    1420 calls)

     Called by h_psi:
     h_psi:pot    :     74.52s CPU     75.15s WALL (    7097 calls)
     h_psi:calbec :      1.45s CPU      1.46s WALL (    7097 calls)
     vloc_psi     :     71.55s CPU     72.14s WALL (    7097 calls)
     add_vuspsi   :      1.51s CPU      1.52s WALL (    7097 calls)

     General routines
     calbec       :      1.44s CPU      1.45s WALL (    7097 calls)
     fft          :      0.00s CPU      0.00s WALL (       3 calls)
     fftw         :     65.94s CPU     66.41s WALL (  196772 calls)
     davcio       :      0.00s CPU      0.07s WALL (     532 calls)

     Parallel routines

     PWSCF        :   2m26.49s CPU   2m29.79s WALL


   This run was terminated on:  17:14:19  26Aug2019            

=------------------------------------------------------------------------------=
   JOB DONE.
=------------------------------------------------------------------------------=
