
     Program PWSCF v.6.4rc starts on 26Aug2019 at 17:11:18 

     This program is part of the open-source Quantum ESPRESSO suite
     for quantum simulation of materials; please cite
         "P. Giannozzi et al., J. Phys.:Condens. Matter 21 395502 (2009);
         "P. Giannozzi et al., J. Phys.:Condens. Matter 29 465901 (2017);
          URL http://www.quantum-espresso.org", 
     in publications or presentations arising from this work. More details at
     http://www.quantum-espresso.org/quote

     Parallel version (MPI), running on     4 processors

     MPI processes distributed on     1 nodes
     K-points division:     npool     =       4
     Waiting for input...
     Reading input from standard input
Warning: card &IONS ignored
Warning: card / ignored
Warning: card &CELL ignored
Warning: card / ignored

     Current dimensions of program PWSCF are:
     Max number of different atomic species (ntypx) = 10
     Max number of k-points (npk) =  40000
     Max angular momentum in pseudopotentials (lmaxx) =  3
               file B.cpi.UPF: wavefunction(s)  2s 2p 3d renormalized
               file As.cpi.UPF: wavefunction(s)  4s 4p 4d renormalized

     Subspace diagonalization in iterative solution of the eigenvalue problem:
     a serial algorithm will be used


     G-vector sticks info
     --------------------
     sticks:   dense  smooth     PW     G-vecs:    dense   smooth      PW
     Sum         559     559    177                 8705     8705    1543



     bravais-lattice index     =            0
     lattice parameter (alat)  =       8.9562  a.u.
     unit-cell volume          =     182.2663 (a.u.)^3
     number of atoms/cell      =            2
     number of atomic types    =            2
     number of electrons       =         8.00
     number of Kohn-Sham states=           24
     kinetic-energy cutoff     =      50.0000  Ry
     charge density cutoff     =     200.0000  Ry
     convergence threshold     =      1.0E-10
     mixing beta               =       0.7000
     number of iterations used =            8  plain     mixing
     Exchange-correlation      = SLA  PZ   NOGX NOGC ( 1  1  0  0 0 0)

     celldm(1)=   8.956205  celldm(2)=   0.000000  celldm(3)=   0.000000
     celldm(4)=   0.000000  celldm(5)=   0.000000  celldm(6)=   0.000000

     crystal axes: (cart. coord. in units of alat)
               a(1) = (  -0.505000   0.000000   0.497418 )  
               a(2) = (   0.000000   0.505000   0.497418 )  
               a(3) = (  -0.505000   0.505000   0.000000 )  

     reciprocal axes: (cart. coord. in units 2 pi/alat)
               b(1) = ( -0.990099 -0.990099  1.005191 )  
               b(2) = (  0.990099  0.990099  1.005191 )  
               b(3) = ( -0.990099  0.990099 -1.005191 )  


     PseudoPot. # 1 for B  read from file:
     ./B.cpi.UPF
     MD5 check sum: 858e09cd2823d4a3381ad351fbe5daf8
     Pseudo is Norm-conserving, Zval =  3.0
     Generated using FHI98PP, converted with fhi2upf.x v.5.0.2
     Using radial grid of  991 points,  2 beta functions with: 
                l(1) =   0
                l(2) =   1

     PseudoPot. # 2 for As read from file:
     ./As.cpi.UPF
     MD5 check sum: 77982eeacdf728cf28132b225af03d26
     Pseudo is Norm-conserving, Zval =  5.0
     Generated by new atomic code, or converted to UPF format
     Using radial grid of 1142 points,  2 beta functions with: 
                l(1) =   0
                l(2) =   1

     atomic species   valence    mass     pseudopotential
        B              3.00    10.81000     B ( 1.00)
        As             5.00    74.92200     As( 1.00)

      8 Sym. Ops. (no inversion) found


                                    s                        frac. trans.

      isym =  1     identity                                     

 cryst.   s( 1) = (     1          0          0      )
                  (     0          1          0      )
                  (     0          0          1      )

 cart.    s( 1) = (  1.0000000  0.0000000  0.0000000 )
                  (  0.0000000  1.0000000  0.0000000 )
                  (  0.0000000  0.0000000  1.0000000 )


      isym =  2     180 deg rotation - cart. axis [0,0,1]        

 cryst.   s( 2) = (     0          1         -1      )
                  (     1          0         -1      )
                  (     0          0         -1      )

 cart.    s( 2) = ( -1.0000000  0.0000000  0.0000000 )
                  (  0.0000000 -1.0000000  0.0000000 )
                  (  0.0000000  0.0000000  1.0000000 )


      isym =  3     180 deg rotation - cart. axis [0,1,0]        

 cryst.   s( 3) = (    -1          0          0      )
                  (    -1          0          1      )
                  (    -1          1          0      )

 cart.    s( 3) = ( -1.0000000  0.0000000  0.0000000 )
                  (  0.0000000  1.0000000  0.0000000 )
                  (  0.0000000  0.0000000 -1.0000000 )


      isym =  4     180 deg rotation - cart. axis [1,0,0]        

 cryst.   s( 4) = (     0         -1          1      )
                  (     0         -1          0      )
                  (     1         -1          0      )

 cart.    s( 4) = (  1.0000000  0.0000000  0.0000000 )
                  (  0.0000000 -1.0000000  0.0000000 )
                  (  0.0000000  0.0000000 -1.0000000 )


      isym =  5     inv. 180 deg rotation - cart. axis [1,1,0]   

 cryst.   s( 5) = (     0          1          0      )
                  (     1          0          0      )
                  (     0          0          1      )

 cart.    s( 5) = (  0.0000000 -1.0000000  0.0000000 )
                  ( -1.0000000  0.0000000  0.0000000 )
                  (  0.0000000  0.0000000  1.0000000 )


      isym =  6     inv. 180 deg rotation - cart. axis [1,-1,0]  

 cryst.   s( 6) = (     1          0         -1      )
                  (     0          1         -1      )
                  (     0          0         -1      )

 cart.    s( 6) = (  0.0000000  1.0000000  0.0000000 )
                  (  1.0000000  0.0000000  0.0000000 )
                  (  0.0000000  0.0000000  1.0000000 )


      isym =  7     inv.  90 deg rotation - cart. axis [0,0,-1]  

 cryst.   s( 7) = (     0         -1          0      )
                  (     0         -1          1      )
                  (     1         -1          0      )

 cart.    s( 7) = (  0.0000000 -1.0000000  0.0000000 )
                  (  1.0000000  0.0000000  0.0000000 )
                  (  0.0000000  0.0000000 -1.0000000 )


      isym =  8     inv.  90 deg rotation - cart. axis [0,0,1]   

 cryst.   s( 8) = (    -1          0          1      )
                  (    -1          0          0      )
                  (    -1          1          0      )

 cart.    s( 8) = (  0.0000000  1.0000000  0.0000000 )
                  ( -1.0000000  0.0000000  0.0000000 )
                  (  0.0000000  0.0000000 -1.0000000 )


   Cartesian axes

     site n.     atom                  positions (alat units)
         1           As  tau(   1) = (   0.0000000   0.0000000   0.0000000  )
         2           B   tau(   2) = (  -0.2525000   0.2525000   0.2487090  )

   Crystallographic axes

     site n.     atom                  positions (cryst. coord.)
         1           As  tau(   1) = (  0.0000000  0.0000000  0.0000000  )
         2           B   tau(   2) = (  0.2500000  0.2500000  0.2500000  )

     number of k points=   163
                       cart. coord. in units 2pi/alat
        k(    1) = (   0.0000000   0.0000000   0.0000000), wk =   0.0011574
        k(    2) = (  -0.0825083   0.0825083  -0.0837659), wk =   0.0092593
        k(    3) = (  -0.1650165   0.1650165  -0.1675318), wk =   0.0092593
        k(    4) = (  -0.2475248   0.2475248  -0.2512977), wk =   0.0092593
        k(    5) = (  -0.3300330   0.3300330  -0.3350636), wk =   0.0092593
        k(    6) = (  -0.4125413   0.4125413  -0.4188295), wk =   0.0092593
        k(    7) = (   0.4950495  -0.4950495   0.5025954), wk =   0.0046296
        k(    8) = (   0.0000000   0.1650165   0.0000000), wk =   0.0046296
        k(    9) = (  -0.0825083   0.2475248  -0.0837659), wk =   0.0185185
        k(   10) = (  -0.1650165   0.3300330  -0.1675318), wk =   0.0185185
        k(   11) = (  -0.2475248   0.4125413  -0.2512977), wk =   0.0185185
        k(   12) = (  -0.3300330   0.4950495  -0.3350636), wk =   0.0185185
        k(   13) = (   0.5775578  -0.4125413   0.5863613), wk =   0.0185185
        k(   14) = (   0.4950495  -0.3300330   0.5025954), wk =   0.0185185
        k(   15) = (   0.4125413  -0.2475248   0.4188295), wk =   0.0185185
        k(   16) = (   0.3300330  -0.1650165   0.3350636), wk =   0.0185185
        k(   17) = (   0.2475248  -0.0825083   0.2512977), wk =   0.0185185
        k(   18) = (   0.1650165  -0.0000000   0.1675318), wk =   0.0092593
        k(   19) = (   0.0000000   0.3300330   0.0000000), wk =   0.0046296
        k(   20) = (  -0.0825083   0.4125413  -0.0837659), wk =   0.0185185
        k(   21) = (  -0.1650165   0.4950495  -0.1675318), wk =   0.0185185
        k(   22) = (  -0.2475248   0.5775578  -0.2512977), wk =   0.0185185
        k(   23) = (   0.6600660  -0.3300330   0.6701272), wk =   0.0185185
        k(   24) = (   0.5775578  -0.2475248   0.5863613), wk =   0.0185185
        k(   25) = (   0.4950495  -0.1650165   0.5025954), wk =   0.0185185
        k(   26) = (   0.4125413  -0.0825083   0.4188295), wk =   0.0185185
        k(   27) = (   0.3300330   0.0000000   0.3350636), wk =   0.0092593
        k(   28) = (   0.0000000   0.4950495   0.0000000), wk =   0.0046296
        k(   29) = (  -0.0825083   0.5775578  -0.0837659), wk =   0.0185185
        k(   30) = (  -0.1650165   0.6600660  -0.1675318), wk =   0.0185185
        k(   31) = (   0.7425743  -0.2475248   0.7538931), wk =   0.0185185
        k(   32) = (   0.6600660  -0.1650165   0.6701272), wk =   0.0185185
        k(   33) = (   0.5775578  -0.0825083   0.5863613), wk =   0.0185185
        k(   34) = (   0.4950495   0.0000000   0.5025954), wk =   0.0092593
        k(   35) = (   0.0000000   0.6600660   0.0000000), wk =   0.0046296
        k(   36) = (  -0.0825083   0.7425743  -0.0837659), wk =   0.0185185
        k(   37) = (   0.8250825  -0.1650165   0.8376590), wk =   0.0185185
        k(   38) = (   0.7425743  -0.0825083   0.7538931), wk =   0.0185185
        k(   39) = (   0.6600660  -0.0000000   0.6701272), wk =   0.0092593
        k(   40) = (   0.0000000   0.8250825   0.0000000), wk =   0.0046296
        k(   41) = (   0.9075908  -0.0825083   0.9214249), wk =   0.0185185
        k(   42) = (   0.8250825   0.0000000   0.8376590), wk =   0.0092593
        k(   43) = (   0.0000000  -0.9900990   0.0000000), wk =   0.0023148
        k(   44) = (   0.0000000   0.0000000   0.1675318), wk =   0.0023148
        k(   45) = (  -0.1650165   0.1650165   0.0000000), wk =   0.0046296
        k(   46) = (  -0.2475248   0.2475248  -0.0837659), wk =   0.0092593
        k(   47) = (  -0.3300330   0.3300330  -0.1675318), wk =   0.0092593
        k(   48) = (  -0.4125413   0.4125413  -0.2512977), wk =   0.0092593
        k(   49) = (   0.4950495  -0.4950495   0.6701272), wk =   0.0092593
        k(   50) = (   0.4125413  -0.4125413   0.5863613), wk =   0.0092593
        k(   51) = (   0.3300330  -0.3300330   0.5025954), wk =   0.0092593
        k(   52) = (   0.2475248  -0.2475248   0.4188295), wk =   0.0092593
        k(   53) = (   0.1650165  -0.1650165   0.3350636), wk =   0.0092593
        k(   54) = (   0.0825083  -0.0825083   0.2512977), wk =   0.0092593
        k(   55) = (  -0.1650165   0.3300330   0.0000000), wk =   0.0092593
        k(   56) = (  -0.2475248   0.4125413  -0.0837659), wk =   0.0185185
        k(   57) = (  -0.3300330   0.4950495  -0.1675318), wk =   0.0185185
        k(   58) = (   0.5775578  -0.4125413   0.7538931), wk =   0.0185185
        k(   59) = (   0.4950495  -0.3300330   0.6701272), wk =   0.0185185
        k(   60) = (   0.4125413  -0.2475248   0.5863613), wk =   0.0185185
        k(   61) = (   0.3300330  -0.1650165   0.5025954), wk =   0.0185185
        k(   62) = (   0.2475248  -0.0825083   0.4188295), wk =   0.0185185
        k(   63) = (   0.1650165  -0.0000000   0.3350636), wk =   0.0092593
        k(   64) = (   0.0000000   0.3300330   0.1675318), wk =   0.0092593
        k(   65) = (  -0.1650165   0.4950495   0.0000000), wk =   0.0092593
        k(   66) = (  -0.2475248   0.5775578  -0.0837659), wk =   0.0185185
        k(   67) = (   0.6600660  -0.3300330   0.8376590), wk =   0.0185185
        k(   68) = (   0.5775578  -0.2475248   0.7538931), wk =   0.0185185
        k(   69) = (   0.4950495  -0.1650165   0.6701272), wk =   0.0185185
        k(   70) = (   0.4125413  -0.0825083   0.5863613), wk =   0.0185185
        k(   71) = (   0.3300330   0.0000000   0.5025954), wk =   0.0092593
        k(   72) = (   0.0825083   0.4125413   0.2512977), wk =   0.0185185
        k(   73) = (   0.0000000   0.4950495   0.1675318), wk =   0.0092593
        k(   74) = (  -0.1650165   0.6600660   0.0000000), wk =   0.0092593
        k(   75) = (   0.7425743  -0.2475248   0.9214249), wk =   0.0185185
        k(   76) = (   0.6600660  -0.1650165   0.8376590), wk =   0.0185185
        k(   77) = (   0.5775578  -0.0825083   0.7538931), wk =   0.0185185
        k(   78) = (   0.4950495   0.0000000   0.6701272), wk =   0.0092593
        k(   79) = (   0.1650165   0.4950495   0.3350636), wk =   0.0185185
        k(   80) = (   0.0825083   0.5775578   0.2512977), wk =   0.0185185
        k(   81) = (   0.0000000   0.6600660   0.1675318), wk =   0.0092593
        k(   82) = (   0.8250825  -0.1650165   1.0051908), wk =   0.0092593
        k(   83) = (   0.7425743  -0.0825083   0.9214249), wk =   0.0185185
        k(   84) = (   0.6600660  -0.0000000   0.8376590), wk =   0.0092593
        k(   85) = (  -0.7425743  -0.4125413  -0.5863613), wk =   0.0185185
        k(   86) = (  -0.8250825  -0.3300330  -0.6701272), wk =   0.0185185
        k(   87) = (  -0.9075908  -0.2475248  -0.7538931), wk =   0.0185185
        k(   88) = (  -0.9900990  -0.1650165  -0.8376590), wk =   0.0092593
        k(   89) = (  -0.1650165  -0.9900990  -0.0000000), wk =   0.0046296
        k(   90) = (  -0.6600660  -0.3300330  -0.5025954), wk =   0.0092593
        k(   91) = (  -0.7425743  -0.2475248  -0.5863613), wk =   0.0185185
        k(   92) = (  -0.8250825  -0.1650165  -0.6701272), wk =   0.0185185
        k(   93) = (  -0.9075908  -0.0825083  -0.7538931), wk =   0.0185185
        k(   94) = (   0.0000000  -0.9900990   0.1675318), wk =   0.0046296
        k(   95) = (  -0.6600660  -0.1650165  -0.5025954), wk =   0.0185185
        k(   96) = (  -0.7425743  -0.0825083  -0.5863613), wk =   0.0185185
        k(   97) = (  -0.8250825  -0.0000000  -0.6701272), wk =   0.0092593
        k(   98) = (  -0.5775578  -0.0825083  -0.4188295), wk =   0.0185185
        k(   99) = (  -0.6600660   0.0000000  -0.5025954), wk =   0.0092593
        k(  100) = (  -0.4950495   0.0000000  -0.3350636), wk =   0.0092593
        k(  101) = (   0.0000000   0.0000000   0.3350636), wk =   0.0023148
        k(  102) = (  -0.3300330   0.3300330   0.0000000), wk =   0.0046296
        k(  103) = (  -0.4125413   0.4125413  -0.0837659), wk =   0.0092593
        k(  104) = (   0.4950495  -0.4950495   0.8376590), wk =   0.0092593
        k(  105) = (   0.4125413  -0.4125413   0.7538931), wk =   0.0092593
        k(  106) = (   0.3300330  -0.3300330   0.6701272), wk =   0.0092593
        k(  107) = (   0.2475248  -0.2475248   0.5863613), wk =   0.0092593
        k(  108) = (   0.1650165  -0.1650165   0.5025954), wk =   0.0092593
        k(  109) = (   0.0825083  -0.0825083   0.4188295), wk =   0.0092593
        k(  110) = (  -0.3300330   0.4950495   0.0000000), wk =   0.0092593
        k(  111) = (   0.5775578  -0.4125413   0.9214249), wk =   0.0185185
        k(  112) = (   0.4950495  -0.3300330   0.8376590), wk =   0.0185185
        k(  113) = (   0.4125413  -0.2475248   0.7538931), wk =   0.0185185
        k(  114) = (   0.3300330  -0.1650165   0.6701272), wk =   0.0185185
        k(  115) = (   0.2475248  -0.0825083   0.5863613), wk =   0.0185185
        k(  116) = (   0.1650165  -0.0000000   0.5025954), wk =   0.0092593
        k(  117) = (   0.6600660  -0.3300330   1.0051908), wk =   0.0092593
        k(  118) = (   0.5775578  -0.2475248   0.9214249), wk =   0.0185185
        k(  119) = (   0.4950495  -0.1650165   0.8376590), wk =   0.0185185
        k(  120) = (   0.4125413  -0.0825083   0.7538931), wk =   0.0185185
        k(  121) = (   0.3300330   0.0000000   0.6701272), wk =   0.0092593
        k(  122) = (   0.6600660  -0.1650165   1.0051908), wk =   0.0092593
        k(  123) = (   0.5775578  -0.0825083   0.9214249), wk =   0.0185185
        k(  124) = (   0.4950495   0.0000000   0.8376590), wk =   0.0092593
        k(  125) = (  -0.9900990  -0.3300330  -0.6701272), wk =   0.0092593
        k(  126) = (  -0.3300330  -0.9900990   0.0000000), wk =   0.0046296
        k(  127) = (  -0.9075908  -0.2475248  -0.5863613), wk =   0.0185185
        k(  128) = (  -0.9900990  -0.1650165  -0.6701272), wk =   0.0092593
        k(  129) = (  -0.8250825  -0.1650165  -0.5025954), wk =   0.0092593
        k(  130) = (  -0.9075908  -0.0825083  -0.5863613), wk =   0.0185185
        k(  131) = (  -0.0000000  -0.9900990   0.3350636), wk =   0.0046296
        k(  132) = (  -0.8250825   0.0000000  -0.5025954), wk =   0.0092593
        k(  133) = (   0.0000000   0.0000000   0.5025954), wk =   0.0023148
        k(  134) = (   0.4950495  -0.4950495   1.0051908), wk =   0.0046296
        k(  135) = (   0.4125413  -0.4125413   0.9214249), wk =   0.0092593
        k(  136) = (   0.3300330  -0.3300330   0.8376590), wk =   0.0092593
        k(  137) = (   0.2475248  -0.2475248   0.7538931), wk =   0.0092593
        k(  138) = (   0.1650165  -0.1650165   0.6701272), wk =   0.0092593
        k(  139) = (   0.0825083  -0.0825083   0.5863613), wk =   0.0092593
        k(  140) = (   0.4950495  -0.3300330   1.0051908), wk =   0.0092593
        k(  141) = (   0.4125413  -0.2475248   0.9214249), wk =   0.0185185
        k(  142) = (   0.3300330  -0.1650165   0.8376590), wk =   0.0185185
        k(  143) = (   0.2475248  -0.0825083   0.7538931), wk =   0.0185185
        k(  144) = (   0.1650165  -0.0000000   0.6701272), wk =   0.0092593
        k(  145) = (   0.4950495  -0.1650165   1.0051908), wk =   0.0092593
        k(  146) = (   0.4125413  -0.0825083   0.9214249), wk =   0.0185185
        k(  147) = (   0.3300330   0.0000000   0.8376590), wk =   0.0092593
        k(  148) = (  -0.4950495  -0.9900990   0.0000000), wk =   0.0046296
        k(  149) = (   0.0000000  -0.9900990   0.5025954), wk =   0.0023148
        k(  150) = (   0.0000000   0.0000000   0.6701272), wk =   0.0023148
        k(  151) = (   0.3300330  -0.3300330   1.0051908), wk =   0.0046296
        k(  152) = (   0.2475248  -0.2475248   0.9214249), wk =   0.0092593
        k(  153) = (   0.1650165  -0.1650165   0.8376590), wk =   0.0092593
        k(  154) = (   0.0825083  -0.0825083   0.7538931), wk =   0.0092593
        k(  155) = (   0.3300330  -0.1650165   1.0051908), wk =   0.0092593
        k(  156) = (   0.2475248  -0.0825083   0.9214249), wk =   0.0185185
        k(  157) = (   0.1650165  -0.0000000   0.8376590), wk =   0.0092593
        k(  158) = (  -0.6600660  -0.9900990  -0.0000000), wk =   0.0046296
        k(  159) = (   0.0000000   0.0000000   0.8376590), wk =   0.0023148
        k(  160) = (   0.1650165  -0.1650165   1.0051908), wk =   0.0046296
        k(  161) = (   0.0825083  -0.0825083   0.9214249), wk =   0.0092593
        k(  162) = (  -0.8250825  -0.9900990   0.0000000), wk =   0.0046296
        k(  163) = (   0.0000000   0.0000000  -1.0051908), wk =   0.0011574

                       cryst. coord.
        k(    1) = (   0.0000000   0.0000000   0.0000000), wk =   0.0011574
        k(    2) = (   0.0000000   0.0000000   0.0833333), wk =   0.0092593
        k(    3) = (   0.0000000   0.0000000   0.1666667), wk =   0.0092593
        k(    4) = (   0.0000000   0.0000000   0.2500000), wk =   0.0092593
        k(    5) = (   0.0000000   0.0000000   0.3333333), wk =   0.0092593
        k(    6) = (   0.0000000   0.0000000   0.4166667), wk =   0.0092593
        k(    7) = (  -0.0000000  -0.0000000  -0.5000000), wk =   0.0046296
        k(    8) = (   0.0000000   0.0833333   0.0833333), wk =   0.0046296
        k(    9) = (   0.0000000   0.0833333   0.1666667), wk =   0.0185185
        k(   10) = (   0.0000000   0.0833333   0.2500000), wk =   0.0185185
        k(   11) = (   0.0000000   0.0833333   0.3333333), wk =   0.0185185
        k(   12) = (   0.0000000   0.0833333   0.4166667), wk =   0.0185185
        k(   13) = (   0.0000000   0.0833333  -0.5000000), wk =   0.0185185
        k(   14) = (  -0.0000000   0.0833333  -0.4166667), wk =   0.0185185
        k(   15) = (  -0.0000000   0.0833333  -0.3333333), wk =   0.0185185
        k(   16) = (   0.0000000   0.0833333  -0.2500000), wk =   0.0185185
        k(   17) = (  -0.0000000   0.0833333  -0.1666667), wk =   0.0185185
        k(   18) = (   0.0000000   0.0833333  -0.0833333), wk =   0.0092593
        k(   19) = (   0.0000000   0.1666667   0.1666667), wk =   0.0046296
        k(   20) = (   0.0000000   0.1666667   0.2500000), wk =   0.0185185
        k(   21) = (   0.0000000   0.1666667   0.3333333), wk =   0.0185185
        k(   22) = (   0.0000000   0.1666667   0.4166667), wk =   0.0185185
        k(   23) = (   0.0000000   0.1666667  -0.5000000), wk =   0.0185185
        k(   24) = (  -0.0000000   0.1666667  -0.4166667), wk =   0.0185185
        k(   25) = (   0.0000000   0.1666667  -0.3333333), wk =   0.0185185
        k(   26) = (  -0.0000000   0.1666667  -0.2500000), wk =   0.0185185
        k(   27) = (   0.0000000   0.1666667  -0.1666667), wk =   0.0092593
        k(   28) = (   0.0000000   0.2500000   0.2500000), wk =   0.0046296
        k(   29) = (   0.0000000   0.2500000   0.3333333), wk =   0.0185185
        k(   30) = (   0.0000000   0.2500000   0.4166667), wk =   0.0185185
        k(   31) = (  -0.0000000   0.2500000  -0.5000000), wk =   0.0185185
        k(   32) = (   0.0000000   0.2500000  -0.4166667), wk =   0.0185185
        k(   33) = (   0.0000000   0.2500000  -0.3333333), wk =   0.0185185
        k(   34) = (  -0.0000000   0.2500000  -0.2500000), wk =   0.0092593
        k(   35) = (   0.0000000   0.3333333   0.3333333), wk =   0.0046296
        k(   36) = (   0.0000000   0.3333333   0.4166667), wk =   0.0185185
        k(   37) = (  -0.0000000   0.3333333  -0.5000000), wk =   0.0185185
        k(   38) = (  -0.0000000   0.3333333  -0.4166667), wk =   0.0185185
        k(   39) = (   0.0000000   0.3333333  -0.3333333), wk =   0.0092593
        k(   40) = (   0.0000000   0.4166667   0.4166667), wk =   0.0046296
        k(   41) = (   0.0000000   0.4166667  -0.5000000), wk =   0.0185185
        k(   42) = (  -0.0000000   0.4166667  -0.4166667), wk =   0.0092593
        k(   43) = (   0.0000000  -0.5000000  -0.5000000), wk =   0.0023148
        k(   44) = (   0.0833333   0.0833333   0.0000000), wk =   0.0023148
        k(   45) = (   0.0833333   0.0833333   0.1666667), wk =   0.0046296
        k(   46) = (   0.0833333   0.0833333   0.2500000), wk =   0.0092593
        k(   47) = (   0.0833333   0.0833333   0.3333333), wk =   0.0092593
        k(   48) = (   0.0833333   0.0833333   0.4166667), wk =   0.0092593
        k(   49) = (   0.0833333   0.0833333  -0.5000000), wk =   0.0092593
        k(   50) = (   0.0833333   0.0833333  -0.4166667), wk =   0.0092593
        k(   51) = (   0.0833333   0.0833333  -0.3333333), wk =   0.0092593
        k(   52) = (   0.0833333   0.0833333  -0.2500000), wk =   0.0092593
        k(   53) = (   0.0833333   0.0833333  -0.1666667), wk =   0.0092593
        k(   54) = (   0.0833333   0.0833333  -0.0833333), wk =   0.0092593
        k(   55) = (   0.0833333   0.1666667   0.2500000), wk =   0.0092593
        k(   56) = (   0.0833333   0.1666667   0.3333333), wk =   0.0185185
        k(   57) = (   0.0833333   0.1666667   0.4166667), wk =   0.0185185
        k(   58) = (   0.0833333   0.1666667  -0.5000000), wk =   0.0185185
        k(   59) = (   0.0833333   0.1666667  -0.4166667), wk =   0.0185185
        k(   60) = (   0.0833333   0.1666667  -0.3333333), wk =   0.0185185
        k(   61) = (   0.0833333   0.1666667  -0.2500000), wk =   0.0185185
        k(   62) = (   0.0833333   0.1666667  -0.1666667), wk =   0.0185185
        k(   63) = (   0.0833333   0.1666667  -0.0833333), wk =   0.0092593
        k(   64) = (   0.0833333   0.2500000   0.1666667), wk =   0.0092593
        k(   65) = (   0.0833333   0.2500000   0.3333333), wk =   0.0092593
        k(   66) = (   0.0833333   0.2500000   0.4166667), wk =   0.0185185
        k(   67) = (   0.0833333   0.2500000  -0.5000000), wk =   0.0185185
        k(   68) = (   0.0833333   0.2500000  -0.4166667), wk =   0.0185185
        k(   69) = (   0.0833333   0.2500000  -0.3333333), wk =   0.0185185
        k(   70) = (   0.0833333   0.2500000  -0.2500000), wk =   0.0185185
        k(   71) = (   0.0833333   0.2500000  -0.1666667), wk =   0.0092593
        k(   72) = (   0.0833333   0.3333333   0.1666667), wk =   0.0185185
        k(   73) = (   0.0833333   0.3333333   0.2500000), wk =   0.0092593
        k(   74) = (   0.0833333   0.3333333   0.4166667), wk =   0.0092593
        k(   75) = (   0.0833333   0.3333333  -0.5000000), wk =   0.0185185
        k(   76) = (   0.0833333   0.3333333  -0.4166667), wk =   0.0185185
        k(   77) = (   0.0833333   0.3333333  -0.3333333), wk =   0.0185185
        k(   78) = (   0.0833333   0.3333333  -0.2500000), wk =   0.0092593
        k(   79) = (   0.0833333   0.4166667   0.1666667), wk =   0.0185185
        k(   80) = (   0.0833333   0.4166667   0.2500000), wk =   0.0185185
        k(   81) = (   0.0833333   0.4166667   0.3333333), wk =   0.0092593
        k(   82) = (   0.0833333   0.4166667  -0.5000000), wk =   0.0092593
        k(   83) = (   0.0833333   0.4166667  -0.4166667), wk =   0.0185185
        k(   84) = (   0.0833333   0.4166667  -0.3333333), wk =   0.0092593
        k(   85) = (   0.0833333  -0.5000000   0.1666667), wk =   0.0185185
        k(   86) = (   0.0833333  -0.5000000   0.2500000), wk =   0.0185185
        k(   87) = (   0.0833333  -0.5000000   0.3333333), wk =   0.0185185
        k(   88) = (   0.0833333  -0.5000000   0.4166667), wk =   0.0092593
        k(   89) = (   0.0833333  -0.5000000  -0.4166667), wk =   0.0046296
        k(   90) = (   0.0833333  -0.4166667   0.1666667), wk =   0.0092593
        k(   91) = (   0.0833333  -0.4166667   0.2500000), wk =   0.0185185
        k(   92) = (   0.0833333  -0.4166667   0.3333333), wk =   0.0185185
        k(   93) = (   0.0833333  -0.4166667   0.4166667), wk =   0.0185185
        k(   94) = (   0.0833333  -0.4166667  -0.5000000), wk =   0.0046296
        k(   95) = (   0.0833333  -0.3333333   0.2500000), wk =   0.0185185
        k(   96) = (   0.0833333  -0.3333333   0.3333333), wk =   0.0185185
        k(   97) = (   0.0833333  -0.3333333   0.4166667), wk =   0.0092593
        k(   98) = (   0.0833333  -0.2500000   0.2500000), wk =   0.0185185
        k(   99) = (   0.0833333  -0.2500000   0.3333333), wk =   0.0092593
        k(  100) = (   0.0833333  -0.1666667   0.2500000), wk =   0.0092593
        k(  101) = (   0.1666667   0.1666667   0.0000000), wk =   0.0023148
        k(  102) = (   0.1666667   0.1666667   0.3333333), wk =   0.0046296
        k(  103) = (   0.1666667   0.1666667   0.4166667), wk =   0.0092593
        k(  104) = (   0.1666667   0.1666667  -0.5000000), wk =   0.0092593
        k(  105) = (   0.1666667   0.1666667  -0.4166667), wk =   0.0092593
        k(  106) = (   0.1666667   0.1666667  -0.3333333), wk =   0.0092593
        k(  107) = (   0.1666667   0.1666667  -0.2500000), wk =   0.0092593
        k(  108) = (   0.1666667   0.1666667  -0.1666667), wk =   0.0092593
        k(  109) = (   0.1666667   0.1666667  -0.0833333), wk =   0.0092593
        k(  110) = (   0.1666667   0.2500000   0.4166667), wk =   0.0092593
        k(  111) = (   0.1666667   0.2500000  -0.5000000), wk =   0.0185185
        k(  112) = (   0.1666667   0.2500000  -0.4166667), wk =   0.0185185
        k(  113) = (   0.1666667   0.2500000  -0.3333333), wk =   0.0185185
        k(  114) = (   0.1666667   0.2500000  -0.2500000), wk =   0.0185185
        k(  115) = (   0.1666667   0.2500000  -0.1666667), wk =   0.0185185
        k(  116) = (   0.1666667   0.2500000  -0.0833333), wk =   0.0092593
        k(  117) = (   0.1666667   0.3333333  -0.5000000), wk =   0.0092593
        k(  118) = (   0.1666667   0.3333333  -0.4166667), wk =   0.0185185
        k(  119) = (   0.1666667   0.3333333  -0.3333333), wk =   0.0185185
        k(  120) = (   0.1666667   0.3333333  -0.2500000), wk =   0.0185185
        k(  121) = (   0.1666667   0.3333333  -0.1666667), wk =   0.0092593
        k(  122) = (   0.1666667   0.4166667  -0.4166667), wk =   0.0092593
        k(  123) = (   0.1666667   0.4166667  -0.3333333), wk =   0.0185185
        k(  124) = (   0.1666667   0.4166667  -0.2500000), wk =   0.0092593
        k(  125) = (   0.1666667  -0.5000000   0.3333333), wk =   0.0092593
        k(  126) = (   0.1666667  -0.5000000  -0.3333333), wk =   0.0046296
        k(  127) = (   0.1666667  -0.4166667   0.3333333), wk =   0.0185185
        k(  128) = (   0.1666667  -0.4166667   0.4166667), wk =   0.0092593
        k(  129) = (   0.1666667  -0.3333333   0.3333333), wk =   0.0092593
        k(  130) = (   0.1666667  -0.3333333   0.4166667), wk =   0.0185185
        k(  131) = (   0.1666667  -0.3333333  -0.5000000), wk =   0.0046296
        k(  132) = (   0.1666667  -0.2500000   0.4166667), wk =   0.0092593
        k(  133) = (   0.2500000   0.2500000   0.0000000), wk =   0.0023148
        k(  134) = (   0.2500000   0.2500000  -0.5000000), wk =   0.0046296
        k(  135) = (   0.2500000   0.2500000  -0.4166667), wk =   0.0092593
        k(  136) = (   0.2500000   0.2500000  -0.3333333), wk =   0.0092593
        k(  137) = (   0.2500000   0.2500000  -0.2500000), wk =   0.0092593
        k(  138) = (   0.2500000   0.2500000  -0.1666667), wk =   0.0092593
        k(  139) = (   0.2500000   0.2500000  -0.0833333), wk =   0.0092593
        k(  140) = (   0.2500000   0.3333333  -0.4166667), wk =   0.0092593
        k(  141) = (   0.2500000   0.3333333  -0.3333333), wk =   0.0185185
        k(  142) = (   0.2500000   0.3333333  -0.2500000), wk =   0.0185185
        k(  143) = (   0.2500000   0.3333333  -0.1666667), wk =   0.0185185
        k(  144) = (   0.2500000   0.3333333  -0.0833333), wk =   0.0092593
        k(  145) = (   0.2500000   0.4166667  -0.3333333), wk =   0.0092593
        k(  146) = (   0.2500000   0.4166667  -0.2500000), wk =   0.0185185
        k(  147) = (   0.2500000   0.4166667  -0.1666667), wk =   0.0092593
        k(  148) = (   0.2500000  -0.5000000  -0.2500000), wk =   0.0046296
        k(  149) = (   0.2500000  -0.2500000  -0.5000000), wk =   0.0023148
        k(  150) = (   0.3333333   0.3333333   0.0000000), wk =   0.0023148
        k(  151) = (   0.3333333   0.3333333  -0.3333333), wk =   0.0046296
        k(  152) = (   0.3333333   0.3333333  -0.2500000), wk =   0.0092593
        k(  153) = (   0.3333333   0.3333333  -0.1666667), wk =   0.0092593
        k(  154) = (   0.3333333   0.3333333  -0.0833333), wk =   0.0092593
        k(  155) = (   0.3333333   0.4166667  -0.2500000), wk =   0.0092593
        k(  156) = (   0.3333333   0.4166667  -0.1666667), wk =   0.0185185
        k(  157) = (   0.3333333   0.4166667  -0.0833333), wk =   0.0092593
        k(  158) = (   0.3333333  -0.5000000  -0.1666667), wk =   0.0046296
        k(  159) = (   0.4166667   0.4166667   0.0000000), wk =   0.0023148
        k(  160) = (   0.4166667   0.4166667  -0.1666667), wk =   0.0046296
        k(  161) = (   0.4166667   0.4166667  -0.0833333), wk =   0.0092593
        k(  162) = (   0.4166667  -0.5000000  -0.0833333), wk =   0.0046296
        k(  163) = (  -0.5000000  -0.5000000   0.0000000), wk =   0.0011574

     Dense  grid:     8705 G-vectors     FFT dimensions: (  30,  30,  30)

     Dynamical RAM for                 wfc:       0.40 MB

     Dynamical RAM for     wfc (w. buffer):      16.73 MB

     Dynamical RAM for           str. fact:       0.27 MB

     Dynamical RAM for           local pot:       0.00 MB

     Dynamical RAM for          nlocal pot:       0.13 MB

     Dynamical RAM for                qrad:       0.28 MB

     Dynamical RAM for          rho,v,vnew:       1.02 MB

     Dynamical RAM for               rhoin:       0.34 MB

     Dynamical RAM for            rho*nmix:       2.13 MB

     Dynamical RAM for           G-vectors:       0.56 MB

     Dynamical RAM for          h,s,v(r/c):       0.42 MB

     Dynamical RAM for          <psi|beta>:       0.00 MB

     Dynamical RAM for                 psi:       1.59 MB

     Dynamical RAM for                hpsi:       1.59 MB

     Dynamical RAM for      wfcinit/wfcrot:       0.81 MB

     Estimated static dynamical RAM per process >      22.88 MB

     Estimated max dynamical RAM per process >      26.50 MB

     Estimated total dynamical RAM >     105.98 MB

     Initial potential from superposition of free atoms

     starting charge    7.75203, renormalised to    8.00000
     Starting wfcs are   18 randomized atomic wfcs +    6 random wfcs

     total cpu time spent up to now is        1.0 secs

     Self-consistent Calculation

     iteration #  1     ecut=    50.00 Ry     beta= 0.70
     Davidson diagonalization with overlap
     ethr =  1.00E-02,  avg # of iterations =  5.2

     total cpu time spent up to now is        6.7 secs

     total energy              =     -18.43437863 Ry
     Harris-Foulkes estimate   =     -18.51854168 Ry
     estimated scf accuracy    <       0.14189796 Ry

     iteration #  2     ecut=    50.00 Ry     beta= 0.70
     Davidson diagonalization with overlap
     ethr =  1.77E-03,  avg # of iterations =  3.8

     total cpu time spent up to now is        9.7 secs

     total energy              =     -18.46549044 Ry
     Harris-Foulkes estimate   =     -18.48547757 Ry
     estimated scf accuracy    <       0.03818761 Ry

     iteration #  3     ecut=    50.00 Ry     beta= 0.70
     Davidson diagonalization with overlap
     ethr =  4.77E-04,  avg # of iterations =  1.6

     total cpu time spent up to now is       12.2 secs

     total energy              =     -18.47304754 Ry
     Harris-Foulkes estimate   =     -18.47316925 Ry
     estimated scf accuracy    <       0.00044482 Ry

     iteration #  4     ecut=    50.00 Ry     beta= 0.70
     Davidson diagonalization with overlap
     ethr =  5.56E-06,  avg # of iterations =  4.5

     total cpu time spent up to now is       16.5 secs

     total energy              =     -18.47311287 Ry
     Harris-Foulkes estimate   =     -18.47311353 Ry
     estimated scf accuracy    <       0.00000934 Ry

     iteration #  5     ecut=    50.00 Ry     beta= 0.70
     Davidson diagonalization with overlap
     ethr =  1.17E-07,  avg # of iterations =  2.5

     total cpu time spent up to now is       19.3 secs

     total energy              =     -18.47311333 Ry
     Harris-Foulkes estimate   =     -18.47311339 Ry
     estimated scf accuracy    <       0.00000012 Ry

     iteration #  6     ecut=    50.00 Ry     beta= 0.70
     Davidson diagonalization with overlap
     ethr =  1.54E-09,  avg # of iterations =  4.3

     total cpu time spent up to now is       24.2 secs

     total energy              =     -18.47311338 Ry
     Harris-Foulkes estimate   =     -18.47311338 Ry
     estimated scf accuracy    <          2.7E-09 Ry

     iteration #  7     ecut=    50.00 Ry     beta= 0.70
     Davidson diagonalization with overlap
     ethr =  3.34E-11,  avg # of iterations =  2.5

     total cpu time spent up to now is       27.3 secs

     total energy              =     -18.47311338 Ry
     Harris-Foulkes estimate   =     -18.47311338 Ry
     estimated scf accuracy    <          1.4E-10 Ry

     iteration #  8     ecut=    50.00 Ry     beta= 0.70
     Davidson diagonalization with overlap
     ethr =  1.75E-12,  avg # of iterations =  3.5

     total cpu time spent up to now is       30.6 secs

     End of self-consistent calculation

          k = 0.0000 0.0000 0.0000 (  1067 PWs)   bands (ev):

    -6.9395   8.4013   8.4013   8.5451  11.7271  11.8257  11.8257  13.6084
    18.2326  21.4664  21.8772  22.9739  22.9739  23.4905  27.4256  38.2832
    38.2832  38.6008  44.1654  44.7100  44.7100  45.7092  46.2000  48.8097

     occupation numbers 
     1.0000   1.0000   1.0000   1.0000   0.0000   0.0000   0.0000   0.0000
     0.0000   0.0000   0.0000   0.0000   0.0000   0.0000   0.0000   0.0000
     0.0000   0.0000   0.0000   0.0000   0.0000   0.0000   0.0000   0.0000

          k =-0.0825 0.0825-0.0838 (  1083 PWs)   bands (ev):

    -6.8253   7.4262   8.1815   8.2867  11.9436  12.0871  12.1127  14.1735
    18.7014  20.6077  20.9241  22.7246  24.2647  24.6653  28.3015  37.4382
    37.8860  38.0619  43.2188  43.4581  45.1241  45.4704  45.7305  49.0618

     occupation numbers 
     1.0000   1.0000   1.0000   1.0000   0.0000   0.0000   0.0000   0.0000
     0.0000   0.0000   0.0000   0.0000   0.0000   0.0000   0.0000   0.0000
     0.0000   0.0000   0.0000   0.0000   0.0000   0.0000   0.0000   0.0000

          k =-0.1650 0.1650-0.1675 (  1085 PWs)   bands (ev):

    -6.4859   5.5183   7.7138   7.8327  11.9048  12.6783  12.7032  15.4130
    19.6650  19.8347  20.0788  22.3613  26.3863  26.8126  30.2307  35.6684
    36.3669  36.3900  41.8694  41.9507  45.5013  45.8874  46.3048  49.4335

     occupation numbers 
     1.0000   1.0000   1.0000   1.0000   0.0000   0.0000   0.0000   0.0000
     0.0000   0.0000   0.0000   0.0000   0.0000   0.0000   0.0000   0.0000
     0.0000   0.0000   0.0000   0.0000   0.0000   0.0000   0.0000   0.0000

          k =-0.2475 0.2475-0.2513 (  1088 PWs)   bands (ev):

    -5.9365   3.5373   7.2399   7.3800  11.6966  13.1606  13.1929  16.5713
    19.8243  19.8419  20.1035  23.4510  28.6676  29.0555  32.2115  33.8054
    34.0696  34.6842  41.2892  41.5408  45.7729  46.0346  46.2509  50.0208

     occupation numbers 
     1.0000   1.0000   1.0000   1.0000   0.0000   0.0000   0.0000   0.0000
     0.0000   0.0000   0.0000   0.0000   0.0000   0.0000   0.0000   0.0000
     0.0000   0.0000   0.0000   0.0000   0.0000   0.0000   0.0000   0.0000

          k =-0.3300 0.3300-0.3351 (  1082 PWs)   bands (ev):

    -5.2185   1.7337   6.8674   7.0275  11.5041  13.2944  13.3918  17.2632
    20.1466  20.7407  20.7478  24.9879  29.4679  29.5720  32.4473  33.1337
    33.4563  36.3447  41.0734  41.3950  43.6351  46.3643  46.4873  48.5186

     occupation numbers 
     1.0000   1.0000   1.0000   1.0000   0.0000   0.0000   0.0000   0.0000
     0.0000   0.0000   0.0000   0.0000   0.0000   0.0000   0.0000   0.0000
     0.0000   0.0000   0.0000   0.0000   0.0000   0.0000   0.0000   0.0000

          k =-0.4125 0.4125-0.4188 (  1094 PWs)   bands (ev):

    -4.4608   0.3066   6.6354   6.8093  11.3790  13.2466  13.3817  17.4121
    20.8388  22.1536  22.2617  25.4236  27.4071  27.6401  33.3804  35.3729
    35.8875  38.4665  40.5200  40.9117  41.8220  44.8388  45.4346  47.2903

     occupation numbers 
     1.0000   1.0000   1.0000   1.0000   0.0000   0.0000   0.0000   0.0000
     0.0000   0.0000   0.0000   0.0000   0.0000   0.0000   0.0000   0.0000
     0.0000   0.0000   0.0000   0.0000   0.0000   0.0000   0.0000   0.0000

          k = 0.4950-0.4950 0.5026 (  1084 PWs)   bands (ev):

    -4.0665  -0.3133   6.5570   6.7359  11.3364  13.2080  13.3540  17.4018
    21.2748  23.2767  23.4332  25.2327  26.0063  26.2053  34.7317  37.4259
    37.6174  37.9413  39.2975  39.9516  43.6168  43.7937  44.2950  44.9396

     occupation numbers 
     1.0000   1.0000   1.0000   1.0000   0.0000   0.0000   0.0000   0.0000
     0.0000   0.0000   0.0000   0.0000   0.0000   0.0000   0.0000   0.0000
     0.0000   0.0000   0.0000   0.0000   0.0000   0.0000   0.0000   0.0000

          k = 0.0000 0.1650 0.0000 (  1081 PWs)   bands (ev):

    -6.7885   7.7146   7.7963   7.9077  11.4450  12.5000  12.6488  14.1611
    18.8521  19.5623  21.9371  23.3094  23.8090  24.6672  28.6118  37.2367
    37.6992  37.8514  43.1043  43.8049  44.1812  44.5876  46.7756  50.3148

     occupation numbers 
     1.0000   1.0000   1.0000   1.0000   0.0000   0.0000   0.0000   0.0000
     0.0000   0.0000   0.0000   0.0000   0.0000   0.0000   0.0000   0.0000
     0.0000   0.0000   0.0000   0.0000   0.0000   0.0000   0.0000   0.0000

          k =-0.0825 0.2475-0.0838 (  1085 PWs)   bands (ev):

    -6.5253   6.1363   7.3245   7.6525  11.5098  12.8819  13.3221  14.9189
    18.7823  19.7783  21.3703  23.2037  25.0344  26.4292  30.2480  35.6224
    36.1645  37.4789  41.4607  42.4097  44.1614  45.5767  47.0103  51.0954

     occupation numbers 
     1.0000   1.0000   1.0000   1.0000   0.0000   0.0000   0.0000   0.0000
     0.0000   0.0000   0.0000   0.0000   0.0000   0.0000   0.0000   0.0000
     0.0000   0.0000   0.0000   0.0000   0.0000   0.0000   0.0000   0.0000

          k =-0.1650 0.3300-0.1675 (  1087 PWs)   bands (ev):

    -6.0458   4.2110   6.8680   7.1964  11.8427  12.9310  13.9000  15.6935
    18.9018  20.5909  21.0943  23.3795  27.2674  28.7790  31.9553  33.4533
    34.4104  36.4091  40.7893  41.1715  44.5255  45.9443  46.9503  51.2196

     occupation numbers 
     1.0000   1.0000   1.0000   1.0000   0.0000   0.0000   0.0000   0.0000
     0.0000   0.0000   0.0000   0.0000   0.0000   0.0000   0.0000   0.0000
     0.0000   0.0000   0.0000   0.0000   0.0000   0.0000   0.0000   0.0000

          k =-0.2475 0.4125-0.2513 (  1087 PWs)   bands (ev):

    -5.3796   2.3648   6.5427   6.7128  11.9015  13.0452  14.0990  16.4087
    19.6050  20.8346  21.6226  24.6968  28.8444  30.5864  31.8124  31.8869
    34.7546  36.0852  40.5700  40.9179  44.1859  44.9916  46.4887  48.9058

     occupation numbers 
     1.0000   1.0000   1.0000   1.0000   0.0000   0.0000   0.0000   0.0000
     0.0000   0.0000   0.0000   0.0000   0.0000   0.0000   0.0000   0.0000
     0.0000   0.0000   0.0000   0.0000   0.0000   0.0000   0.0000   0.0000

          k =-0.3300 0.4950-0.3351 (  1091 PWs)   bands (ev):

    -4.6129   0.8006   6.2483   6.4476  11.8313  13.0827  13.9826  17.1954
    20.1650  21.6638  22.8135  25.3144  27.2559  29.7069  32.7561  33.7750
    35.8266  38.0408  40.5239  40.8431  41.8655  44.4100  45.4823  47.6532

     occupation numbers 
     1.0000   1.0000   1.0000   1.0000   0.0000   0.0000   0.0000   0.0000
     0.0000   0.0000   0.0000   0.0000   0.0000   0.0000   0.0000   0.0000
     0.0000   0.0000   0.0000   0.0000   0.0000   0.0000   0.0000   0.0000

          k = 0.5776-0.4125 0.5864 (  1089 PWs)   bands (ev):

    -4.0298  -0.1525   5.9734   6.4658  11.7965  13.1304  13.7727  17.6157
    20.8679  22.6011  23.3528  25.1626  26.2430  28.0543  34.2960  36.5327
    37.1285  38.1095  39.5098  40.2586  42.5914  43.7846  44.4679  46.1917

     occupation numbers 
     1.0000   1.0000   1.0000   1.0000   0.0000   0.0000   0.0000   0.0000
     0.0000   0.0000   0.0000   0.0000   0.0000   0.0000   0.0000   0.0000
     0.0000   0.0000   0.0000   0.0000   0.0000   0.0000   0.0000   0.0000

          k = 0.4950-0.3300 0.5026 (  1092 PWs)   bands (ev):

    -4.1644   0.0553   5.8450   6.6576  11.8344  13.2831  13.5963  17.6208
    20.8831  21.7704  23.2447  25.3077  27.2632  27.9191  33.4423  35.6767
    37.4308  38.2121  40.0630  40.3367  42.6220  43.4837  44.6507  46.4186

     occupation numbers 
     1.0000   1.0000   1.0000   1.0000   0.0000   0.0000   0.0000   0.0000
     0.0000   0.0000   0.0000   0.0000   0.0000   0.0000   0.0000   0.0000
     0.0000   0.0000   0.0000   0.0000   0.0000   0.0000   0.0000   0.0000

          k = 0.4125-0.2475 0.4188 (  1087 PWs)   bands (ev):

    -4.8603   1.2650   5.8875   6.9947  11.9424  13.4076  13.5416  17.2165
    20.0994  20.4607  22.7521  25.2554  28.2908  30.0766  31.6138  33.3597
    35.3718  37.6776  40.4871  40.8840  42.7257  44.8792  46.4421  47.0862

     occupation numbers 
     1.0000   1.0000   1.0000   1.0000   0.0000   0.0000   0.0000   0.0000
     0.0000   0.0000   0.0000   0.0000   0.0000   0.0000   0.0000   0.0000
     0.0000   0.0000   0.0000   0.0000   0.0000   0.0000   0.0000   0.0000

          k = 0.3300-0.1650 0.3351 (  1088 PWs)   bands (ev):

    -5.6112   2.9459   6.1106   7.4408  12.1002  13.1240  13.6509  16.4562
    19.1121  20.2914  21.6960  24.2633  28.2625  30.6664  31.0487  33.4177
    34.6917  35.4130  40.4713  40.8670  45.1648  45.2369  46.3306  49.8928

     occupation numbers 
     1.0000   1.0000   1.0000   1.0000   0.0000   0.0000   0.0000   0.0000
     0.0000   0.0000   0.0000   0.0000   0.0000   0.0000   0.0000   0.0000
     0.0000   0.0000   0.0000   0.0000   0.0000   0.0000   0.0000   0.0000

          k = 0.2475-0.0825 0.2513 (  1086 PWs)   bands (ev):

    -6.2225   4.8335   6.5191   7.9238  12.2385  12.6115  13.3485  15.6859
    18.9712  20.1490  20.8397  23.2965  25.8806  28.7157  31.4678  34.0673
    35.4755  36.6150  40.7708  41.1519  45.0740  45.8767  46.5147  51.4716

     occupation numbers 
     1.0000   1.0000   1.0000   1.0000   0.0000   0.0000   0.0000   0.0000
     0.0000   0.0000   0.0000   0.0000   0.0000   0.0000   0.0000   0.0000
     0.0000   0.0000   0.0000   0.0000   0.0000   0.0000   0.0000   0.0000

          k = 0.1650-0.0000 0.1675 (  1079 PWs)   bands (ev):

    -6.6342   6.5818   7.1977   8.2812  12.0731  12.1930  12.7727  14.8412
    19.4004  19.6136  20.6738  23.5996  23.7148  26.4974  29.6362  36.2035
    36.8540  37.8137  42.0045  42.2024  45.1730  45.4366  46.0083  50.9894

     occupation numbers 
     1.0000   1.0000   1.0000   1.0000   0.0000   0.0000   0.0000   0.0000
     0.0000   0.0000   0.0000   0.0000   0.0000   0.0000   0.0000   0.0000
     0.0000   0.0000   0.0000   0.0000   0.0000   0.0000   0.0000   0.0000

          k = 0.0000 0.3300 0.0000 (  1076 PWs)   bands (ev):

    -6.3389   6.1848   6.7327   6.8076  10.7825  14.0558  14.2840  14.3663
    18.2480  20.4614  22.4688  24.3177  24.7689  26.0141  31.6099  34.8658
    35.4620  37.0627  39.6046  43.5126  43.7414  44.7201  47.8116  51.9851

     occupation numbers 
     1.0000   1.0000   1.0000   1.0000   0.0000   0.0000   0.0000   0.0000
     0.0000   0.0000   0.0000   0.0000   0.0000   0.0000   0.0000   0.0000
     0.0000   0.0000   0.0000   0.0000   0.0000   0.0000   0.0000   0.0000

          k =-0.0825 0.4125-0.0838 (  1076 PWs)   bands (ev):

    -5.9339   4.7341   6.2832   6.3883  10.8649  13.9033  14.7641  15.0114
    18.7011  21.5304  22.3978  24.4956  26.0979  27.8837  32.5535  33.2363
    34.1729  37.1525  38.5981  42.1257  43.6300  45.5328  47.6685  49.8193

     occupation numbers 
     1.0000   1.0000   1.0000   1.0000   0.0000   0.0000   0.0000   0.0000
     0.0000   0.0000   0.0000   0.0000   0.0000   0.0000   0.0000   0.0000
     0.0000   0.0000   0.0000   0.0000   0.0000   0.0000   0.0000   0.0000

          k =-0.1650 0.4950-0.1675 (  1079 PWs)   bands (ev):

    -5.3317   3.0204   5.8003   5.9878  11.2763  13.9567  14.9183  15.3322
    19.6964  22.1290  22.7127  24.9805  28.0826  30.4055  30.9208  31.4595
    34.9407  37.8597  38.5142  40.7188  43.7128  44.1725  46.5920  48.7191

     occupation numbers 
     1.0000   1.0000   1.0000   1.0000   0.0000   0.0000   0.0000   0.0000
     0.0000   0.0000   0.0000   0.0000   0.0000   0.0000   0.0000   0.0000
     0.0000   0.0000   0.0000   0.0000   0.0000   0.0000   0.0000   0.0000

          k =-0.2475 0.5776-0.2513 (  1089 PWs)   bands (ev):

    -4.5925   1.4390   5.2278   5.8547  11.4770  14.1548  15.2273  15.5969
    20.2991  22.5822  23.5990  25.4642  27.3068  30.9024  32.0130  32.4271
    35.6974  38.1751  38.7095  40.7799  42.0578  43.8040  44.6711  47.5949

     occupation numbers 
     1.0000   1.0000   1.0000   1.0000   0.0000   0.0000   0.0000   0.0000
     0.0000   0.0000   0.0000   0.0000   0.0000   0.0000   0.0000   0.0000
     0.0000   0.0000   0.0000   0.0000   0.0000   0.0000   0.0000   0.0000

          k = 0.6601-0.3300 0.6701 (  1092 PWs)   bands (ev):

    -3.9080   0.2825   4.7637   5.9195  11.6038  14.1009  14.9543  16.9104
    20.2418  23.1350  23.4839  25.3421  26.7600  30.6293  33.4264  34.8820
    36.4574  38.0215  38.8789  39.8801  41.8148  43.9443  44.5103  46.4265

     occupation numbers 
     1.0000   1.0000   1.0000   1.0000   0.0000   0.0000   0.0000   0.0000
     0.0000   0.0000   0.0000   0.0000   0.0000   0.0000   0.0000   0.0000
     0.0000   0.0000   0.0000   0.0000   0.0000   0.0000   0.0000   0.0000

          k = 0.5776-0.2475 0.5864 (  1090 PWs)   bands (ev):

    -3.7694   0.0804   4.4664   6.1694  11.8235  14.0693  14.6282  17.7992
    20.1510  21.6172  23.2744  25.7472  28.4987  29.4928  32.9344  36.1059
    37.0654  37.7010  39.3086  39.7267  42.7792  43.3270  44.6666  44.9450

     occupation numbers 
     1.0000   1.0000   1.0000   1.0000   0.0000   0.0000   0.0000   0.0000
     0.0000   0.0000   0.0000   0.0000   0.0000   0.0000   0.0000   0.0000
     0.0000   0.0000   0.0000   0.0000   0.0000   0.0000   0.0000   0.0000

          k = 0.4950-0.1650 0.5026 (  1092 PWs)   bands (ev):

    -4.3341   0.9925   4.3707   6.5784  12.1443  14.0975  14.3222  17.2005
    19.8600  20.6878  23.7055  25.6752  28.6608  30.6557  31.1579  33.9748
    36.8111  38.2372  39.8692  40.4290  42.2702  42.7113  45.5563  45.8985

     occupation numbers 
     1.0000   1.0000   1.0000   1.0000   0.0000   0.0000   0.0000   0.0000
     0.0000   0.0000   0.0000   0.0000   0.0000   0.0000   0.0000   0.0000
     0.0000   0.0000   0.0000   0.0000   0.0000   0.0000   0.0000   0.0000

          k = 0.4125-0.0825 0.4188 (  1085 PWs)   bands (ev):

    -5.0871   2.4567   4.5225   7.0946  12.4746  13.7235  14.3166  16.0867
    18.7582  21.0768  23.2941  25.4088  28.0164  29.6229  31.9597  33.3904
    36.1641  37.0856  38.6784  39.9471  43.9915  44.2357  46.1314  47.7955

     occupation numbers 
     1.0000   1.0000   1.0000   1.0000   0.0000   0.0000   0.0000   0.0000
     0.0000   0.0000   0.0000   0.0000   0.0000   0.0000   0.0000   0.0000
     0.0000   0.0000   0.0000   0.0000   0.0000   0.0000   0.0000   0.0000

          k = 0.3300 0.0000 0.3351 (  1088 PWs)   bands (ev):

    -5.7460   3.9381   5.1236   7.6119  12.6178  13.0792  13.9499  15.6237
    18.4969  20.8575  22.0011  24.7629  26.2924  30.6329  30.8177  33.9506
    35.2293  36.7618  38.9532  40.1740  44.6037  45.9291  46.2556  50.8703

     occupation numbers 
     1.0000   1.0000   1.0000   1.0000   0.0000   0.0000   0.0000   0.0000
     0.0000   0.0000   0.0000   0.0000   0.0000   0.0000   0.0000   0.0000
     0.0000   0.0000   0.0000   0.0000   0.0000   0.0000   0.0000   0.0000

          k = 0.0000 0.4950 0.0000 (  1080 PWs)   bands (ev):

    -5.6047   4.3782   5.7622   5.8135  10.1852  13.0807  15.8063  16.1123
    18.9277  22.5818  23.3642  25.9812  26.3623  27.4285  32.1828  32.8216
    33.7067  36.2835  38.0583  43.1982  43.3620  45.1343  47.3148  48.1001

     occupation numbers 
     1.0000   1.0000   1.0000   1.0000   0.0000   0.0000   0.0000   0.0000
     0.0000   0.0000   0.0000   0.0000   0.0000   0.0000   0.0000   0.0000
     0.0000   0.0000   0.0000   0.0000   0.0000   0.0000   0.0000   0.0000

          k =-0.0825 0.5776-0.0838 (  1078 PWs)   bands (ev):

    -5.0747   3.2139   5.1944   5.4409  10.3432  12.6343  16.3163  16.7172
    19.8082  23.5080  23.8160  26.3675  27.6694  29.5171  30.5164  31.2324
    34.1561  35.6102  39.6414  41.9122  42.9054  44.4099  45.8710  46.9707

     occupation numbers 
     1.0000   1.0000   1.0000   1.0000   0.0000   0.0000   0.0000   0.0000
     0.0000   0.0000   0.0000   0.0000   0.0000   0.0000   0.0000   0.0000
     0.0000   0.0000   0.0000   0.0000   0.0000   0.0000   0.0000   0.0000

          k =-0.1650 0.6601-0.1675 (  1085 PWs)   bands (ev):

    -4.3889   1.9099   4.3966   5.2834  10.7235  13.1396  16.2756  16.8214
    20.6373  23.9874  24.4420  26.3907  27.6218  30.3919  30.8953  32.2670
    34.9222  35.8229  38.9899  40.9715  42.3809  43.4548  44.3198  46.2774

     occupation numbers 
     1.0000   1.0000   1.0000   1.0000   0.0000   0.0000   0.0000   0.0000
     0.0000   0.0000   0.0000   0.0000   0.0000   0.0000   0.0000   0.0000
     0.0000   0.0000   0.0000   0.0000   0.0000   0.0000   0.0000   0.0000

          k = 0.7426-0.2475 0.7539 (  1088 PWs)   bands (ev):

    -3.6816   0.7898   3.6861   5.3313  10.9212  14.4812  16.1791  16.5873
    20.4820  23.7753  24.5159  25.9764  27.4492  31.7173  33.1443  33.4947
    35.8356  36.1907  37.5174  39.8970  41.9449  42.3880  44.6386  45.8911

     occupation numbers 
     1.0000   1.0000   1.0000   1.0000   0.0000   0.0000   0.0000   0.0000
     0.0000   0.0000   0.0000   0.0000   0.0000   0.0000   0.0000   0.0000
     0.0000   0.0000   0.0000   0.0000   0.0000   0.0000   0.0000   0.0000

          k = 0.6601-0.1650 0.6701 (  1094 PWs)   bands (ev):

    -3.3355   0.3232   3.1932   5.5777  11.1846  15.4677  16.0753  16.9126
    19.4404  21.7937  24.7283  26.2149  29.1765  31.5153  32.9722  35.0046
    35.4904  37.4320  37.9983  39.5590  42.0870  42.6244  43.5682  45.0015

     occupation numbers 
     1.0000   1.0000   1.0000   1.0000   0.0000   0.0000   0.0000   0.0000
     0.0000   0.0000   0.0000   0.0000   0.0000   0.0000   0.0000   0.0000
     0.0000   0.0000   0.0000   0.0000   0.0000   0.0000   0.0000   0.0000

          k = 0.5776-0.0825 0.5864 (  1093 PWs)   bands (ev):

    -3.7045   0.8695   2.9934   5.9989  11.6016  15.4104  15.7036  17.1998
    19.3667  20.0540  24.8236  26.3445  29.5127  31.1721  32.2688  34.4142
    35.5828  37.6042  39.9045  40.5426  41.8113  43.0313  43.2479  45.0523

     occupation numbers 
     1.0000   1.0000   1.0000   1.0000   0.0000   0.0000   0.0000   0.0000
     0.0000   0.0000   0.0000   0.0000   0.0000   0.0000   0.0000   0.0000
     0.0000   0.0000   0.0000   0.0000   0.0000   0.0000   0.0000   0.0000

          k = 0.4950 0.0000 0.5026 (  1087 PWs)   bands (ev):

    -4.4091   1.8381   3.3137   6.5421  12.1160  14.6479  15.5274  15.9960
    19.0037  20.7841  24.4459  26.1109  27.8638  31.2276  32.3410  33.0284
    36.2155  37.9071  39.0544  40.5310  42.5484  42.9559  45.1252  45.3201

     occupation numbers 
     1.0000   1.0000   1.0000   1.0000   0.0000   0.0000   0.0000   0.0000
     0.0000   0.0000   0.0000   0.0000   0.0000   0.0000   0.0000   0.0000
     0.0000   0.0000   0.0000   0.0000   0.0000   0.0000   0.0000   0.0000

          k = 0.0000 0.6601 0.0000 (  1076 PWs)   bands (ev):

    -4.6215   2.5349   5.0265   5.0629   9.7961  11.6384  17.5534  17.9102
    20.0972  24.4816  24.7589  28.0693  28.3731  29.3946  29.8768  30.5017
    33.2402  33.9375  40.9820  41.8117  41.9360  44.2088  44.3256  46.9184

     occupation numbers 
     1.0000   1.0000   1.0000   1.0000   0.0000   0.0000   0.0000   0.0000
     0.0000   0.0000   0.0000   0.0000   0.0000   0.0000   0.0000   0.0000
     0.0000   0.0000   0.0000   0.0000   0.0000   0.0000   0.0000   0.0000

          k =-0.0825 0.7426-0.0838 (  1079 PWs)   bands (ev):

    -4.0113   1.6071   4.4110   4.8430  10.0472  11.4415  17.9816  18.3682
    20.7860  25.0635  25.2967  27.9261  28.3514  29.4288  30.5682  32.0794
    32.8216  34.3891  39.0216  40.6425  41.2692  42.7928  44.8801  45.8701

     occupation numbers 
     1.0000   1.0000   1.0000   1.0000   0.0000   0.0000   0.0000   0.0000
     0.0000   0.0000   0.0000   0.0000   0.0000   0.0000   0.0000   0.0000
     0.0000   0.0000   0.0000   0.0000   0.0000   0.0000   0.0000   0.0000

          k = 0.8251-0.1650 0.8377 (  1085 PWs)   bands (ev):

    -3.3538   0.8069   3.4388   4.8479  10.3509  12.4430  17.8864  18.2580
    20.7880  24.3789  25.2027  27.8453  28.0162  30.6189  32.6111  33.3958
    34.0444  35.5010  36.6190  39.6250  40.2007  41.7699  44.0322  46.6328

     occupation numbers 
     1.0000   1.0000   1.0000   1.0000   0.0000   0.0000   0.0000   0.0000
     0.0000   0.0000   0.0000   0.0000   0.0000   0.0000   0.0000   0.0000
     0.0000   0.0000   0.0000   0.0000   0.0000   0.0000   0.0000   0.0000

          k = 0.7426-0.0825 0.7539 (  1091 PWs)   bands (ev):

    -2.9440   0.4287   2.6183   5.0594  10.6059  14.2042  17.5472  17.9349
    19.5761  22.4163  25.5004  27.7363  29.6603  31.4649  33.1707  33.4183
    35.2021  35.8677  37.5866  39.3511  39.8597  41.9281  43.1016  45.3050

     occupation numbers 
     1.0000   1.0000   1.0000   1.0000   0.0000   0.0000   0.0000   0.0000
     0.0000   0.0000   0.0000   0.0000   0.0000   0.0000   0.0000   0.0000
     0.0000   0.0000   0.0000   0.0000   0.0000   0.0000   0.0000   0.0000

          k = 0.6601-0.0000 0.6701 (  1103 PWs)   bands (ev):

    -3.1280   0.6491   2.3190   5.4586  11.0264  15.9288  16.6933  17.9110
    18.0841  20.8549  25.6216  27.3002  30.0508  31.0795  33.6319  33.9106
    35.0502  36.9058  38.5054  40.3524  40.5096  41.6388  44.5376  44.9020

     occupation numbers 
     1.0000   1.0000   1.0000   1.0000   0.0000   0.0000   0.0000   0.0000
     0.0000   0.0000   0.0000   0.0000   0.0000   0.0000   0.0000   0.0000
     0.0000   0.0000   0.0000   0.0000   0.0000   0.0000   0.0000   0.0000

          k = 0.0000 0.8251 0.0000 (  1078 PWs)   bands (ev):

    -3.5039   0.8631   4.5728   4.6007   9.6941  10.5730  19.0882  19.4181
    21.0198  25.8447  26.1925  27.4453  27.8703  30.7818  31.3612  31.6394
    32.0537  34.6493  38.8004  38.8798  38.9580  40.6082  46.4773  46.6732

     occupation numbers 
     1.0000   1.0000   1.0000   1.0000   0.0000   0.0000   0.0000   0.0000
     0.0000   0.0000   0.0000   0.0000   0.0000   0.0000   0.0000   0.0000
     0.0000   0.0000   0.0000   0.0000   0.0000   0.0000   0.0000   0.0000

          k = 0.9076-0.0825 0.9214 (  1092 PWs)   bands (ev):

    -2.9958   0.2771   4.0321   4.5386   9.9955  10.7255  19.3083  19.5753
    21.1251  25.4573  25.6449  27.8964  28.1611  30.4639  31.6639  33.1720
    34.6024  35.5483  36.0881  37.5066  38.3669  39.7119  45.0850  46.6769

     occupation numbers 
     1.0000   1.0000   1.0000   1.0000   0.0000   0.0000   0.0000   0.0000
     0.0000   0.0000   0.0000   0.0000   0.0000   0.0000   0.0000   0.0000
     0.0000   0.0000   0.0000   0.0000   0.0000   0.0000   0.0000   0.0000

          k = 0.8251 0.0000 0.8377 (  1098 PWs)   bands (ev):

    -2.7620   0.1761   3.1234   4.7004  10.2202  12.2092  18.8146  19.0995
    20.2938  23.6744  25.4810  28.7643  29.4561  31.2994  31.7496  32.9379
    34.8148  36.2016  37.0840  37.4011  38.4938  40.9012  43.3695  45.7494

     occupation numbers 
     1.0000   1.0000   1.0000   1.0000   0.0000   0.0000   0.0000   0.0000
     0.0000   0.0000   0.0000   0.0000   0.0000   0.0000   0.0000   0.0000
     0.0000   0.0000   0.0000   0.0000   0.0000   0.0000   0.0000   0.0000

          k = 0.0000-0.9901 0.0000 (  1102 PWs)   bands (ev):

    -2.8157  -0.0170   4.4199   4.4449   9.9292   9.9433  19.8254  20.0604
    21.3756  26.2655  26.6762  27.0166  27.3048  29.2556  33.5723  33.8052
    34.5702  36.1647  36.3225  36.3689  36.5035  37.7972  46.5640  46.7800

     occupation numbers 
     1.0000   1.0000   1.0000   1.0000   0.0000   0.0000   0.0000   0.0000
     0.0000   0.0000   0.0000   0.0000   0.0000   0.0000   0.0000   0.0000
     0.0000   0.0000   0.0000   0.0000   0.0000   0.0000   0.0000   0.0000

          k = 0.0000 0.0000 0.1675 (  1086 PWs)   bands (ev):

    -6.7841   7.7778   7.7778   7.8533  11.3287  12.6169  12.6169  14.1623
    18.8813  19.9770  21.6489  23.3260  23.3260  24.6880  28.9926  37.4232
    37.4232  38.1694  43.3964  43.9179  43.9179  43.9969  46.4695  50.5402

     occupation numbers 
     1.0000   1.0000   1.0000   1.0000   0.0000   0.0000   0.0000   0.0000
     0.0000   0.0000   0.0000   0.0000   0.0000   0.0000   0.0000   0.0000
     0.0000   0.0000   0.0000   0.0000   0.0000   0.0000   0.0000   0.0000

          k =-0.1650 0.1650 0.0000 (  1083 PWs)   bands (ev):

    -6.6387   6.5667   7.3039   8.1889  12.1522  12.1828  12.7515  14.8277
    19.3946  19.4443  20.4925  24.0030  24.1658  26.1676  29.3858  35.7512
    37.2261  37.7706  42.2187  42.4380  45.1248  45.1471  46.1234  50.9500

     occupation numbers 
     1.0000   1.0000   1.0000   1.0000   0.0000   0.0000   0.0000   0.0000
     0.0000   0.0000   0.0000   0.0000   0.0000   0.0000   0.0000   0.0000
     0.0000   0.0000   0.0000   0.0000   0.0000   0.0000   0.0000   0.0000

          k =-0.2475 0.2475-0.0838 (  1084 PWs)   bands (ev):

    -6.2310   4.8529   6.6123   7.8151  12.2325  12.6328  13.3782  15.6870
    18.8369  20.0322  20.8065  23.6203  26.3489  28.3773  31.1720  33.5750
    35.8404  36.6992  41.0428  41.2910  45.0154  45.5607  46.5966  51.4234

     occupation numbers 
     1.0000   1.0000   1.0000   1.0000   0.0000   0.0000   0.0000   0.0000
     0.0000   0.0000   0.0000   0.0000   0.0000   0.0000   0.0000   0.0000
     0.0000   0.0000   0.0000   0.0000   0.0000   0.0000   0.0000   0.0000

          k =-0.3300 0.3300-0.1675 (  1084 PWs)   bands (ev):

    -5.6229   2.9732   6.2191   7.3159  12.0642  13.1102  13.7014  16.4905
    19.0466  20.2476  21.7100  24.3671  28.5861  30.4420  30.8178  33.5793
    34.8491  35.1086  40.6106  40.9853  45.1063  45.2292  46.1184  49.4835

     occupation numbers 
     1.0000   1.0000   1.0000   1.0000   0.0000   0.0000   0.0000   0.0000
     0.0000   0.0000   0.0000   0.0000   0.0000   0.0000   0.0000   0.0000
     0.0000   0.0000   0.0000   0.0000   0.0000   0.0000   0.0000   0.0000

          k =-0.4125 0.4125-0.2513 (  1091 PWs)   bands (ev):

    -4.8733   1.2906   6.0151   6.8576  11.8799  13.3608  13.6116  17.2736
    20.1298  20.4819  22.6645  25.1524  28.2105  30.2425  31.9862  33.5907
    35.0824  37.3697  40.5208  40.9050  42.6239  44.8090  46.4582  46.7650

     occupation numbers 
     1.0000   1.0000   1.0000   1.0000   0.0000   0.0000   0.0000   0.0000
     0.0000   0.0000   0.0000   0.0000   0.0000   0.0000   0.0000   0.0000
     0.0000   0.0000   0.0000   0.0000   0.0000   0.0000   0.0000   0.0000

          k = 0.4950-0.4950 0.6701 (  1082 PWs)   bands (ev):

    -4.1721   0.0707   5.9880   6.5141  11.7468  13.4188  13.4977  17.6609
    20.9053  21.8224  23.1383  25.1589  27.2764  28.1087  33.7521  35.9407
    37.1437  38.0521  39.7270  40.6052  42.2823  43.3364  44.7712  46.3510

     occupation numbers 
     1.0000   1.0000   1.0000   1.0000   0.0000   0.0000   0.0000   0.0000
     0.0000   0.0000   0.0000   0.0000   0.0000   0.0000   0.0000   0.0000
     0.0000   0.0000   0.0000   0.0000   0.0000   0.0000   0.0000   0.0000

          k = 0.4125-0.4125 0.5864 (  1088 PWs)   bands (ev):

    -4.0221  -0.1581   6.1259   6.3211  11.6911  13.3004  13.6646  17.5895
    20.7603  22.6334  23.4451  25.3136  26.4056  27.7971  34.2938  36.2392
    37.4634  38.1421  39.8257  39.8695  42.7452  44.0765  44.3433  46.1407

     occupation numbers 
     1.0000   1.0000   1.0000   1.0000   0.0000   0.0000   0.0000   0.0000
     0.0000   0.0000   0.0000   0.0000   0.0000   0.0000   0.0000   0.0000
     0.0000   0.0000   0.0000   0.0000   0.0000   0.0000   0.0000   0.0000

          k = 0.3300-0.3300 0.5026 (  1094 PWs)   bands (ev):

    -4.5967   0.7818   6.2975   6.4106  11.7178  13.2619  13.8807  17.0984
    20.0952  21.7786  22.8967  25.4165  27.3956  29.5214  32.6933  33.4272
    35.7746  38.4619  40.4649  41.0607  42.1776  44.7583  45.3076  47.1684

     occupation numbers 
     1.0000   1.0000   1.0000   1.0000   0.0000   0.0000   0.0000   0.0000
     0.0000   0.0000   0.0000   0.0000   0.0000   0.0000   0.0000   0.0000
     0.0000   0.0000   0.0000   0.0000   0.0000   0.0000   0.0000   0.0000

          k = 0.2475-0.2475 0.4188 (  1086 PWs)   bands (ev):

    -5.3636   2.3440   6.4513   6.8154  11.7808  13.1867  14.0282  16.3390
    19.6901  20.8755  21.6110  24.7119  28.7998  30.6490  31.7180  31.8558
    34.3913  36.6721  40.6060  40.9389  44.3439  44.8921  46.5150  49.1384

     occupation numbers 
     1.0000   1.0000   1.0000   1.0000   0.0000   0.0000   0.0000   0.0000
     0.0000   0.0000   0.0000   0.0000   0.0000   0.0000   0.0000   0.0000
     0.0000   0.0000   0.0000   0.0000   0.0000   0.0000   0.0000   0.0000

          k = 0.1650-0.1650 0.3351 (  1094 PWs)   bands (ev):

    -6.0330   4.1964   6.7769   7.2902  11.7057  13.0129  13.8812  15.6978
    19.1394  20.5967  20.9604  23.3086  27.0377  28.6823  32.3026  33.6327
    34.5890  36.3072  40.7772  41.0706  44.4323  45.7360  46.9446  51.5625

     occupation numbers 
     1.0000   1.0000   1.0000   1.0000   0.0000   0.0000   0.0000   0.0000
     0.0000   0.0000   0.0000   0.0000   0.0000   0.0000   0.0000   0.0000
     0.0000   0.0000   0.0000   0.0000   0.0000   0.0000   0.0000   0.0000

          k = 0.0825-0.0825 0.2513 (  1086 PWs)   bands (ev):

    -6.5165   6.1411   7.2458   7.7125  11.3748  12.9428  13.3350  14.9280
    19.1313  19.8206  21.1676  23.0119  24.8119  26.3040  30.7488  35.9581
    36.0175  37.5820  41.5229  42.1193  44.0713  45.2147  46.8748  51.2134

     occupation numbers 
     1.0000   1.0000   1.0000   1.0000   0.0000   0.0000   0.0000   0.0000
     0.0000   0.0000   0.0000   0.0000   0.0000   0.0000   0.0000   0.0000
     0.0000   0.0000   0.0000   0.0000   0.0000   0.0000   0.0000   0.0000

          k =-0.1650 0.3300 0.0000 (  1084 PWs)   bands (ev):

    -6.1932   5.2078   6.2409   7.4045  11.5590  13.2759  14.1063  15.0707
    18.5578  20.7554  21.1690  24.6868  25.2342  27.8785  31.6546  33.5728
    35.4601  37.1960  40.2697  41.5662  43.6533  46.0408  47.1843  51.5034

     occupation numbers 
     1.0000   1.0000   1.0000   1.0000   0.0000   0.0000   0.0000   0.0000
     0.0000   0.0000   0.0000   0.0000   0.0000   0.0000   0.0000   0.0000
     0.0000   0.0000   0.0000   0.0000   0.0000   0.0000   0.0000   0.0000

          k =-0.2475 0.4125-0.0838 (  1081 PWs)   bands (ev):

    -5.6531   3.6103   5.5794   6.9804  11.9747  13.3246  14.6353  15.2889
    18.9812  21.0731  22.1680  24.8363  27.4336  29.9828  30.6329  33.5179
    34.7478  36.8652  39.7002  40.4037  43.6660  45.5313  46.7192  49.6597

     occupation numbers 
     1.0000   1.0000   1.0000   1.0000   0.0000   0.0000   0.0000   0.0000
     0.0000   0.0000   0.0000   0.0000   0.0000   0.0000   0.0000   0.0000
     0.0000   0.0000   0.0000   0.0000   0.0000   0.0000   0.0000   0.0000

          k =-0.3300 0.4950-0.1675 (  1086 PWs)   bands (ev):

    -4.9463   1.9278   5.2708   6.4947  12.1687  13.2476  14.7557  16.0969
    19.7148  21.2799  23.2065  25.2927  28.2516  30.5254  31.4587  32.9142
    35.4075  37.5475  39.7139  40.3103  42.7523  44.0597  45.7106  47.7435

     occupation numbers 
     1.0000   1.0000   1.0000   1.0000   0.0000   0.0000   0.0000   0.0000
     0.0000   0.0000   0.0000   0.0000   0.0000   0.0000   0.0000   0.0000
     0.0000   0.0000   0.0000   0.0000   0.0000   0.0000   0.0000   0.0000

          k = 0.5776-0.4125 0.7539 (  1094 PWs)   bands (ev):

    -4.1991   0.5514   5.1282   6.1382  12.1684  13.0919  14.7741  17.2059
    20.1080  21.9615  23.4788  25.3199  27.5866  30.2207  32.7450  34.5500
    36.9893  37.7741  39.7172  40.3993  41.8609  43.1665  44.6669  46.2574

     occupation numbers 
     1.0000   1.0000   1.0000   1.0000   0.0000   0.0000   0.0000   0.0000
     0.0000   0.0000   0.0000   0.0000   0.0000   0.0000   0.0000   0.0000
     0.0000   0.0000   0.0000   0.0000   0.0000   0.0000   0.0000   0.0000

          k = 0.4950-0.3300 0.6701 (  1093 PWs)   bands (ev):

    -3.8012  -0.0645   5.0642   6.0372  12.1327  13.0522  14.7506  17.7590
    20.1144  22.7020  23.0801  25.3570  27.6884  29.0941  34.0007  36.1409
    37.0256  38.0324  38.9875  39.9674  42.4365  43.4197  44.4639  45.3734

     occupation numbers 
     1.0000   1.0000   1.0000   1.0000   0.0000   0.0000   0.0000   0.0000
     0.0000   0.0000   0.0000   0.0000   0.0000   0.0000   0.0000   0.0000
     0.0000   0.0000   0.0000   0.0000   0.0000   0.0000   0.0000   0.0000

          k = 0.4125-0.2475 0.5864 (  1096 PWs)   bands (ev):

    -4.1741   0.5175   5.0572   6.2238  12.1061  13.1900  14.7367  17.0480
    20.1569  22.0601  23.5289  25.4642  27.6522  29.9756  32.3231  34.4162
    37.0426  38.1561  39.7260  40.4086  42.2577  43.5561  44.8167  45.9647

     occupation numbers 
     1.0000   1.0000   1.0000   1.0000   0.0000   0.0000   0.0000   0.0000
     0.0000   0.0000   0.0000   0.0000   0.0000   0.0000   0.0000   0.0000
     0.0000   0.0000   0.0000   0.0000   0.0000   0.0000   0.0000   0.0000

          k = 0.3300-0.1650 0.5026 (  1086 PWs)   bands (ev):

    -4.9172   1.8848   5.1716   6.6163  12.0634  13.3870  14.6905  15.9776
    19.8063  21.3309  23.2577  25.3079  28.3316  30.2546  31.3909  32.7893
    35.2274  37.9832  39.6693  40.4883  43.1486  44.0555  45.9054  47.7919

     occupation numbers 
     1.0000   1.0000   1.0000   1.0000   0.0000   0.0000   0.0000   0.0000
     0.0000   0.0000   0.0000   0.0000   0.0000   0.0000   0.0000   0.0000
     0.0000   0.0000   0.0000   0.0000   0.0000   0.0000   0.0000   0.0000

          k = 0.2475-0.0825 0.4188 (  1091 PWs)   bands (ev):

    -5.6285   3.5777   5.4749   7.0986  11.8325  13.4278  14.5907  15.2707
    19.1295  21.1397  22.2065  24.5458  27.1090  30.1098  30.9974  33.4178
    34.8564  37.1649  39.5596  40.1632  43.7346  45.5311  46.9074  50.0578

     occupation numbers 
     1.0000   1.0000   1.0000   1.0000   0.0000   0.0000   0.0000   0.0000
     0.0000   0.0000   0.0000   0.0000   0.0000   0.0000   0.0000   0.0000
     0.0000   0.0000   0.0000   0.0000   0.0000   0.0000   0.0000   0.0000

          k = 0.1650-0.0000 0.3351 (  1087 PWs)   bands (ev):

    -6.1759   5.2107   6.1268   7.4966  11.4090  13.3662  14.0545  15.1077
    18.8161  20.7697  21.2369  24.2163  24.9050  27.9733  32.1885  34.0596
    35.2067  37.3593  40.2365  41.0561  43.6785  45.7628  47.2523  51.8941

     occupation numbers 
     1.0000   1.0000   1.0000   1.0000   0.0000   0.0000   0.0000   0.0000
     0.0000   0.0000   0.0000   0.0000   0.0000   0.0000   0.0000   0.0000
     0.0000   0.0000   0.0000   0.0000   0.0000   0.0000   0.0000   0.0000

          k = 0.0000 0.3300 0.1675 (  1087 PWs)   bands (ev):

    -6.1891   5.1936   6.1629   7.4880  11.5722  13.4254  13.9138  15.0940
    18.5777  20.7178  21.4965  24.2631  24.8581  28.3639  31.7777  34.0499
    34.9420  37.0537  40.2048  41.4165  43.9121  45.9722  47.3596  51.4914

     occupation numbers 
     1.0000   1.0000   1.0000   1.0000   0.0000   0.0000   0.0000   0.0000
     0.0000   0.0000   0.0000   0.0000   0.0000   0.0000   0.0000   0.0000
     0.0000   0.0000   0.0000   0.0000   0.0000   0.0000   0.0000   0.0000

          k =-0.1650 0.4950 0.0000 (  1079 PWs)   bands (ev):

    -5.4677   3.8069   5.2776   6.1397  10.9820  13.5422  14.8875  15.9955
    19.3283  22.4379  22.7738  25.7840  26.9399  29.2448  30.6378  32.9768
    34.3049  37.5199  38.1364  41.5815  42.9519  45.1599  46.8728  48.1568

     occupation numbers 
     1.0000   1.0000   1.0000   1.0000   0.0000   0.0000   0.0000   0.0000
     0.0000   0.0000   0.0000   0.0000   0.0000   0.0000   0.0000   0.0000
     0.0000   0.0000   0.0000   0.0000   0.0000   0.0000   0.0000   0.0000

          k =-0.2475 0.5776-0.0838 (  1083 PWs)   bands (ev):

    -4.8212   2.4711   4.6225   5.7151  11.4723  13.7341  14.6730  16.6007
    20.0391  22.6563  23.8297  26.0925  28.2028  29.5536  31.5116  32.0648
    34.8942  37.4356  39.1696  40.6193  42.5120  43.1672  45.8047  46.7632

     occupation numbers 
     1.0000   1.0000   1.0000   1.0000   0.0000   0.0000   0.0000   0.0000
     0.0000   0.0000   0.0000   0.0000   0.0000   0.0000   0.0000   0.0000
     0.0000   0.0000   0.0000   0.0000   0.0000   0.0000   0.0000   0.0000

          k = 0.6601-0.3300 0.8377 (  1084 PWs)   bands (ev):

    -4.0819   1.1371   4.1967   5.4199  11.7240  14.1122  15.0537  16.7876
    20.1921  22.9628  24.3510  25.6554  28.0104  30.8942  32.6864  33.1492
    36.2006  37.6281  38.0046  39.8714  42.0428  43.3754  44.3310  45.7448

     occupation numbers 
     1.0000   1.0000   1.0000   1.0000   0.0000   0.0000   0.0000   0.0000
     0.0000   0.0000   0.0000   0.0000   0.0000   0.0000   0.0000   0.0000
     0.0000   0.0000   0.0000   0.0000   0.0000   0.0000   0.0000   0.0000

          k = 0.5776-0.2475 0.7539 (  1090 PWs)   bands (ev):

    -3.5252   0.2884   3.8601   5.4227  11.9153  13.8624  16.0646  17.1945
    19.2753  23.0153  24.1587  25.5197  28.5419  31.3510  33.2386  35.1281
    35.9350  37.3495  38.6885  39.5672  41.6710  42.6455  44.6229  45.5759

     occupation numbers 
     1.0000   1.0000   1.0000   1.0000   0.0000   0.0000   0.0000   0.0000
     0.0000   0.0000   0.0000   0.0000   0.0000   0.0000   0.0000   0.0000
     0.0000   0.0000   0.0000   0.0000   0.0000   0.0000   0.0000   0.0000

          k = 0.4950-0.1650 0.6701 (  1091 PWs)   bands (ev):

    -3.6465   0.4803   3.6592   5.6948  12.2019  13.6617  15.9602  17.3668
    19.1837  21.8782  24.2302  25.9697  29.5152  30.5710  32.1842  35.0712
    36.6710  37.6314  38.6715  40.3825  41.5222  42.9269  44.7076  45.2127

     occupation numbers 
     1.0000   1.0000   1.0000   1.0000   0.0000   0.0000   0.0000   0.0000
     0.0000   0.0000   0.0000   0.0000   0.0000   0.0000   0.0000   0.0000
     0.0000   0.0000   0.0000   0.0000   0.0000   0.0000   0.0000   0.0000

          k = 0.4125-0.0825 0.5864 (  1089 PWs)   bands (ev):

    -4.3072   1.5474   3.6894   6.1544  12.5108  13.5409  15.2422  16.5135
    19.6977  21.3651  24.3601  25.9985  28.3640  30.6428  32.2004  33.0226
    36.5552  37.5489  39.1485  40.3988  42.4813  43.0922  45.0300  46.1650

     occupation numbers 
     1.0000   1.0000   1.0000   1.0000   0.0000   0.0000   0.0000   0.0000
     0.0000   0.0000   0.0000   0.0000   0.0000   0.0000   0.0000   0.0000
     0.0000   0.0000   0.0000   0.0000   0.0000   0.0000   0.0000   0.0000

          k = 0.3300 0.0000 0.5026 (  1082 PWs)   bands (ev):

    -5.0323   2.7858   4.1819   6.6891  12.4013  13.4725  14.8045  15.6994
    19.2244  21.6620  23.4962  25.7772  27.6619  29.4773  31.9664  33.0873
    35.5156  37.9550  38.7709  39.6589  43.3018  44.2288  46.3558  48.2374

     occupation numbers 
     1.0000   1.0000   1.0000   1.0000   0.0000   0.0000   0.0000   0.0000
     0.0000   0.0000   0.0000   0.0000   0.0000   0.0000   0.0000   0.0000
     0.0000   0.0000   0.0000   0.0000   0.0000   0.0000   0.0000   0.0000

          k = 0.0825 0.4125 0.2513 (  1083 PWs)   bands (ev):

    -5.6456   3.5796   5.4933   7.0741  12.0134  13.4841  14.4907  15.2690
    18.9816  21.1657  22.2476  24.5216  27.0959  30.3540  31.0779  33.1523
    34.7852  36.7546  39.4735  40.4474  43.8727  45.4249  46.9599  49.6971

     occupation numbers 
     1.0000   1.0000   1.0000   1.0000   0.0000   0.0000   0.0000   0.0000
     0.0000   0.0000   0.0000   0.0000   0.0000   0.0000   0.0000   0.0000
     0.0000   0.0000   0.0000   0.0000   0.0000   0.0000   0.0000   0.0000

          k = 0.0000 0.4950 0.1675 (  1082 PWs)   bands (ev):

    -5.4643   3.7830   5.2201   6.1980  11.0035  13.5698  15.1691  15.7041
    19.3091  22.3886  23.0444  25.4258  26.6579  29.6313  31.1702  32.3983
    34.2085  37.4368  38.3666  41.4408  43.1065  45.0821  46.9447  48.1423

     occupation numbers 
     1.0000   1.0000   1.0000   1.0000   0.0000   0.0000   0.0000   0.0000
     0.0000   0.0000   0.0000   0.0000   0.0000   0.0000   0.0000   0.0000
     0.0000   0.0000   0.0000   0.0000   0.0000   0.0000   0.0000   0.0000

          k =-0.1650 0.6601 0.0000 (  1077 PWs)   bands (ev):

    -4.5016   2.3256   4.5605   5.0425  10.5887  12.2398  16.3388  17.8701
    20.3865  24.0936  24.5334  27.3594  28.3238  29.2532  30.6583  31.6028
    34.0928  34.9331  40.2684  40.9357  42.0131  44.0812  44.5873  45.5792

     occupation numbers 
     1.0000   1.0000   1.0000   1.0000   0.0000   0.0000   0.0000   0.0000
     0.0000   0.0000   0.0000   0.0000   0.0000   0.0000   0.0000   0.0000
     0.0000   0.0000   0.0000   0.0000   0.0000   0.0000   0.0000   0.0000

          k = 0.7426-0.2475 0.9214 (  1082 PWs)   bands (ev):

    -3.8128   1.3634   3.7821   4.7588  11.0838  12.8162  16.0461  18.3262
    20.5319  23.9161  25.2120  26.8416  28.6598  30.0138  31.7384  33.4645
    34.5204  35.9270  37.7083  39.9766  41.0260  43.3255  44.6607  45.5544

     occupation numbers 
     1.0000   1.0000   1.0000   1.0000   0.0000   0.0000   0.0000   0.0000
     0.0000   0.0000   0.0000   0.0000   0.0000   0.0000   0.0000   0.0000
     0.0000   0.0000   0.0000   0.0000   0.0000   0.0000   0.0000   0.0000

          k = 0.6601-0.1650 0.8377 (  1091 PWs)   bands (ev):

    -3.2073   0.6146   3.0587   4.7995  11.3240  14.3088  15.7632  18.1135
    19.6394  23.4166  25.2467  26.6136  29.2947  31.4387  33.5250  34.3575
    34.6590  35.5782  38.1111  39.4774  40.3781  42.3392  43.4362  45.9716

     occupation numbers 
     1.0000   1.0000   1.0000   1.0000   0.0000   0.0000   0.0000   0.0000
     0.0000   0.0000   0.0000   0.0000   0.0000   0.0000   0.0000   0.0000
     0.0000   0.0000   0.0000   0.0000   0.0000   0.0000   0.0000   0.0000

          k = 0.5776-0.0825 0.7539 (  1096 PWs)   bands (ev):

    -3.1155   0.5508   2.6228   5.0956  11.6460  15.1295  16.0877  17.5809
    18.6500  22.0386  25.4625  26.8776  30.5869  30.6144  33.3845  34.1966
    35.5724  36.9067  37.9309  39.8344  40.8764  42.9085  43.7625  44.2704

     occupation numbers 
     1.0000   1.0000   1.0000   1.0000   0.0000   0.0000   0.0000   0.0000
     0.0000   0.0000   0.0000   0.0000   0.0000   0.0000   0.0000   0.0000
     0.0000   0.0000   0.0000   0.0000   0.0000   0.0000   0.0000   0.0000

          k = 0.4950 0.0000 0.6701 (  1092 PWs)   bands (ev):

    -3.6238   1.1147   2.7189   5.5804  12.1086  14.6461  15.4894  17.6718
    18.9270  21.0153  25.3398  26.6445  28.9810  31.6252  32.6924  33.6094
    35.8015  37.4706  39.4847  40.1366  41.0887  42.9926  43.6299  45.7213

     occupation numbers 
     1.0000   1.0000   1.0000   1.0000   0.0000   0.0000   0.0000   0.0000
     0.0000   0.0000   0.0000   0.0000   0.0000   0.0000   0.0000   0.0000
     0.0000   0.0000   0.0000   0.0000   0.0000   0.0000   0.0000   0.0000

          k = 0.1650 0.4950 0.3351 (  1090 PWs)   bands (ev):

    -4.9370   1.8968   5.1632   6.5982  12.2498  13.4114  14.6192  16.0749
    19.6906  21.2550  23.2581  25.2818  28.2800  30.2025  31.3204  32.9381
    35.6865  37.5259  39.5334  40.4016  42.7498  44.0847  45.9624  47.9169

     occupation numbers 
     1.0000   1.0000   1.0000   1.0000   0.0000   0.0000   0.0000   0.0000
     0.0000   0.0000   0.0000   0.0000   0.0000   0.0000   0.0000   0.0000
     0.0000   0.0000   0.0000   0.0000   0.0000   0.0000   0.0000   0.0000

          k = 0.0825 0.5776 0.2513 (  1084 PWs)   bands (ev):

    -4.8156   2.4395   4.5549   5.7708  11.5162  13.7768  14.9782  16.3096
    20.0113  22.6639  23.9657  25.8880  28.1982  29.4179  31.1859  32.3190
    34.8401  37.6389  39.1900  40.5430  42.5430  43.1272  45.9559  46.7380

     occupation numbers 
     1.0000   1.0000   1.0000   1.0000   0.0000   0.0000   0.0000   0.0000
     0.0000   0.0000   0.0000   0.0000   0.0000   0.0000   0.0000   0.0000
     0.0000   0.0000   0.0000   0.0000   0.0000   0.0000   0.0000   0.0000

          k = 0.0000 0.6601 0.1675 (  1075 PWs)   bands (ev):

    -4.4993   2.3094   4.5184   5.0685  10.6160  12.2639  16.7001  17.5289
    20.3690  23.9834  24.7933  27.1752  28.3776  29.2072  30.1020  31.9877
[...]
    36.0940  37.3581  39.4259  39.6419  40.9394  43.1104  43.4772  45.1992

     occupation numbers 
     1.0000   1.0000   1.0000   1.0000   0.0000   0.0000   0.0000   0.0000
     0.0000   0.0000   0.0000   0.0000   0.0000   0.0000   0.0000   0.0000
     0.0000   0.0000   0.0000   0.0000   0.0000   0.0000   0.0000   0.0000

          k = 0.4125-0.2475 0.9214 (  1090 PWs)   bands (ev):

    -3.1123   0.6006   2.7111   4.9435  11.4884  15.2398  16.0461  17.5502
    18.6543  21.8700  25.5351  27.0307  30.7131  30.9602  33.5429  34.2234
    35.6550  36.8361  37.7097  39.7402  40.8965  43.0204  43.7853  44.3353

     occupation numbers 
     1.0000   1.0000   1.0000   1.0000   0.0000   0.0000   0.0000   0.0000
     0.0000   0.0000   0.0000   0.0000   0.0000   0.0000   0.0000   0.0000
     0.0000   0.0000   0.0000   0.0000   0.0000   0.0000   0.0000   0.0000

          k = 0.3300-0.1650 0.8377 (  1094 PWs)   bands (ev):

    -3.1541   0.6361   3.0965   4.6778  11.1634  14.1145  15.9089  18.0497
    19.8059  23.3456  25.2680  26.7210  29.4135  31.3087  33.4833  34.4365
    35.0034  35.7131  38.2819  39.5122  40.3868  42.3431  43.4487  46.1086

     occupation numbers 
     1.0000   1.0000   1.0000   1.0000   0.0000   0.0000   0.0000   0.0000
     0.0000   0.0000   0.0000   0.0000   0.0000   0.0000   0.0000   0.0000
     0.0000   0.0000   0.0000   0.0000   0.0000   0.0000   0.0000   0.0000

          k = 0.2475-0.0825 0.7539 (  1087 PWs)   bands (ev):

    -3.7429   1.4053   3.7246   4.6921  10.9078  12.6475  16.2147  18.1983
    20.7107  23.9733  25.2893  26.8940  28.5999  29.8174  31.6646  33.5871
    34.5763  36.1998  38.1306  40.0708  40.9597  43.5697  44.6029  46.3732

     occupation numbers 
     1.0000   1.0000   1.0000   1.0000   0.0000   0.0000   0.0000   0.0000
     0.0000   0.0000   0.0000   0.0000   0.0000   0.0000   0.0000   0.0000
     0.0000   0.0000   0.0000   0.0000   0.0000   0.0000   0.0000   0.0000

          k = 0.1650-0.0000 0.6701 (  1078 PWs)   bands (ev):

    -4.4374   2.4086   4.4234   5.0106  10.3928  12.1403  16.5114  17.7234
    20.5266  24.0726  24.6979  27.2787  28.3314  29.3346  30.4156  31.7268
    34.0141  35.2034  40.7335  40.8379  42.2546  44.8197  44.9787  45.6306

     occupation numbers 
     1.0000   1.0000   1.0000   1.0000   0.0000   0.0000   0.0000   0.0000
     0.0000   0.0000   0.0000   0.0000   0.0000   0.0000   0.0000   0.0000
     0.0000   0.0000   0.0000   0.0000   0.0000   0.0000   0.0000   0.0000

          k = 0.4950-0.1650 1.0052 (  1088 PWs)   bands (ev):

    -2.9191   0.6970   2.6599   4.1130  12.8209  14.8052  15.0218  16.8240
    19.8332  22.9182  25.4503  27.8554  30.1670  31.4592  33.0307  34.0816
    35.5437  36.2865  37.6972  38.6250  41.5245  42.8877  43.3160  45.6003

     occupation numbers 
     1.0000   1.0000   1.0000   1.0000   0.0000   0.0000   0.0000   0.0000
     0.0000   0.0000   0.0000   0.0000   0.0000   0.0000   0.0000   0.0000
     0.0000   0.0000   0.0000   0.0000   0.0000   0.0000   0.0000   0.0000

          k = 0.4125-0.0825 0.9214 (  1093 PWs)   bands (ev):

    -2.7474   0.5692   2.7765   3.8203  12.5070  14.1067  15.5014  17.1462
    20.2948  23.6988  25.1297  27.8895  30.4795  31.5996  33.1440  33.7542
    34.5792  36.0285  37.6408  39.5271  40.8636  42.5655  43.1109  45.7932

     occupation numbers 
     1.0000   1.0000   1.0000   1.0000   0.0000   0.0000   0.0000   0.0000
     0.0000   0.0000   0.0000   0.0000   0.0000   0.0000   0.0000   0.0000
     0.0000   0.0000   0.0000   0.0000   0.0000   0.0000   0.0000   0.0000

          k = 0.3300 0.0000 0.8377 (  1094 PWs)   bands (ev):

    -3.1245   0.8820   3.1849   4.0479  12.0247  12.7571  15.7975  18.6910
    20.2242  23.6461  25.4361  27.7402  29.3516  30.9664  31.5880  34.4237
    35.5485  36.2165  37.5540  38.9417  40.1270  43.0930  43.2024  46.0047

     occupation numbers 
     1.0000   1.0000   1.0000   1.0000   0.0000   0.0000   0.0000   0.0000
     0.0000   0.0000   0.0000   0.0000   0.0000   0.0000   0.0000   0.0000
     0.0000   0.0000   0.0000   0.0000   0.0000   0.0000   0.0000   0.0000

          k =-0.4950-0.9901 0.0000 (  1094 PWs)   bands (ev):

    -2.5894   0.5186   2.9437   3.2235  13.6228  14.5067  15.2010  15.5909
    20.8877  24.4439  24.5303  28.3055  30.9979  32.1314  33.0115  33.0625
    34.5543  34.7446  38.6018  39.7981  40.1177  42.5269  45.2600  45.5841

     occupation numbers 
     1.0000   1.0000   1.0000   1.0000   0.0000   0.0000   0.0000   0.0000
     0.0000   0.0000   0.0000   0.0000   0.0000   0.0000   0.0000   0.0000
     0.0000   0.0000   0.0000   0.0000   0.0000   0.0000   0.0000   0.0000

          k = 0.0000-0.9901 0.5026 (  1100 PWs)   bands (ev):

    -2.6341   0.4868   2.9430   3.2006  13.8235  14.7505  15.4493  15.8938
    20.5902  24.1945  24.2188  27.9144  30.6974  31.8527  32.6306  32.7276
    34.5824  34.9526  38.9413  39.9680  40.1016  42.5175  45.8222  46.1576

     occupation numbers 
     1.0000   1.0000   1.0000   1.0000   0.0000   0.0000   0.0000   0.0000
     0.0000   0.0000   0.0000   0.0000   0.0000   0.0000   0.0000   0.0000
     0.0000   0.0000   0.0000   0.0000   0.0000   0.0000   0.0000   0.0000

          k = 0.0000 0.0000 0.6701 (  1082 PWs)   bands (ev):

    -4.5544   2.6880   4.9154   4.9154   9.6001  11.5560  17.7343  17.7343
    20.2641  24.3613  24.8031  28.3102  28.3102  29.3589  30.1956  30.1956
    33.3401  34.0093  41.6331  41.9739  41.9739  44.7226  45.2317  46.5823

     occupation numbers 
     1.0000   1.0000   1.0000   1.0000   0.0000   0.0000   0.0000   0.0000
     0.0000   0.0000   0.0000   0.0000   0.0000   0.0000   0.0000   0.0000
     0.0000   0.0000   0.0000   0.0000   0.0000   0.0000   0.0000   0.0000

          k = 0.3300-0.3300 1.0052 (  1101 PWs)   bands (ev):

    -3.1171   0.7267   2.3961   5.3077  10.8264  15.7458  16.7180  18.0013
    18.0136  20.7786  25.7595  27.5498  30.5050  31.2648  33.8004  34.1918
    34.9523  36.9200  38.3425  40.3332  40.4895  41.5559  44.0889  45.0830

     occupation numbers 
     1.0000   1.0000   1.0000   1.0000   0.0000   0.0000   0.0000   0.0000
     0.0000   0.0000   0.0000   0.0000   0.0000   0.0000   0.0000   0.0000
     0.0000   0.0000   0.0000   0.0000   0.0000   0.0000   0.0000   0.0000

          k = 0.2475-0.2475 0.9214 (  1101 PWs)   bands (ev):

    -2.8860   0.4979   2.6484   4.9112  10.4142  13.9529  17.6021  17.9015
    19.6763  22.3482  25.6288  27.9475  29.7954  31.7410  33.4196  33.5668
    35.3572  35.7882  37.6760  39.5530  39.8017  41.9053  43.0385  45.5124

     occupation numbers 
     1.0000   1.0000   1.0000   1.0000   0.0000   0.0000   0.0000   0.0000
     0.0000   0.0000   0.0000   0.0000   0.0000   0.0000   0.0000   0.0000
     0.0000   0.0000   0.0000   0.0000   0.0000   0.0000   0.0000   0.0000

          k = 0.1650-0.1650 0.8377 (  1094 PWs)   bands (ev):

    -3.2703   0.8917   3.4099   4.7045  10.1655  12.2266  18.0336  18.1173
    20.9165  24.3284  25.3156  27.9779  28.0495  30.7004  32.6197  33.4246
    34.1903  35.9323  36.7813  39.9426  40.4439  41.6921  44.0850  46.4334

     occupation numbers 
     1.0000   1.0000   1.0000   1.0000   0.0000   0.0000   0.0000   0.0000
     0.0000   0.0000   0.0000   0.0000   0.0000   0.0000   0.0000   0.0000
     0.0000   0.0000   0.0000   0.0000   0.0000   0.0000   0.0000   0.0000

          k = 0.0825-0.0825 0.7539 (  1089 PWs)   bands (ev):

    -3.9309   1.7334   4.3169   4.7056   9.8473  11.3036  18.1206  18.2335
    20.9332  25.0805  25.2680  27.9938  28.3764  29.5016  30.6322  32.1434
    32.8162  34.5184  39.4906  40.9312  41.4980  43.1396  45.0173  46.7233

     occupation numbers 
     1.0000   1.0000   1.0000   1.0000   0.0000   0.0000   0.0000   0.0000
     0.0000   0.0000   0.0000   0.0000   0.0000   0.0000   0.0000   0.0000
     0.0000   0.0000   0.0000   0.0000   0.0000   0.0000   0.0000   0.0000

          k = 0.3300-0.1650 1.0052 (  1092 PWs)   bands (ev):

    -2.7299   0.4872   2.5405   4.4620  11.0131  13.9552  17.1335  17.7597
    19.8124  22.7028  25.5575  28.3272  30.7176  31.3048  33.0619  33.4146
    35.3021  36.1649  37.0719  39.3635  40.5678  41.9012  43.6153  44.0600

     occupation numbers 
     1.0000   1.0000   1.0000   1.0000   0.0000   0.0000   0.0000   0.0000
     0.0000   0.0000   0.0000   0.0000   0.0000   0.0000   0.0000   0.0000
     0.0000   0.0000   0.0000   0.0000   0.0000   0.0000   0.0000   0.0000

          k = 0.2475-0.0825 0.9214 (  1090 PWs)   bands (ev):

    -2.8132   0.4922   3.1978   4.1937  10.7086  12.1073  17.7243  18.9330
    20.6072  24.0662  25.3122  28.0241  30.0521  30.8493  32.3561  33.5633
    34.5355  36.0632  37.1910  38.2303  40.2874  41.6069  43.1295  44.6459

     occupation numbers 
     1.0000   1.0000   1.0000   1.0000   0.0000   0.0000   0.0000   0.0000
     0.0000   0.0000   0.0000   0.0000   0.0000   0.0000   0.0000   0.0000
     0.0000   0.0000   0.0000   0.0000   0.0000   0.0000   0.0000   0.0000

          k = 0.1650-0.0000 0.8377 (  1089 PWs)   bands (ev):

    -3.3257   0.9861   4.0030   4.2530  10.2654  11.0956  18.0508  19.2063
    21.0686  24.8751  25.6538  27.6694  28.7874  30.1188  31.5012  32.4059
    34.3011  35.5459  37.5032  38.6993  41.1591  41.7689  44.2172  45.7157

     occupation numbers 
     1.0000   1.0000   1.0000   1.0000   0.0000   0.0000   0.0000   0.0000
     0.0000   0.0000   0.0000   0.0000   0.0000   0.0000   0.0000   0.0000
     0.0000   0.0000   0.0000   0.0000   0.0000   0.0000   0.0000   0.0000

          k =-0.6601-0.9901-0.0000 (  1086 PWs)   bands (ev):

    -2.5994   0.4148   3.2373   3.4264  12.1104  12.3336  17.2467  17.5286
    20.8882  24.5516  24.6424  28.0353  31.3445  32.0121  32.1005  33.0917
    34.3143  34.9750  37.8931  39.4284  41.2096  41.7732  42.6078  43.4445

     occupation numbers 
     1.0000   1.0000   1.0000   1.0000   0.0000   0.0000   0.0000   0.0000
     0.0000   0.0000   0.0000   0.0000   0.0000   0.0000   0.0000   0.0000
     0.0000   0.0000   0.0000   0.0000   0.0000   0.0000   0.0000   0.0000

          k = 0.0000 0.0000 0.8377 (  1086 PWs)   bands (ev):

    -3.4041   1.0045   4.4456   4.4456   9.4939  10.4266  19.2580  19.2580
    21.1709  25.9261  26.0136  27.6333  27.6333  30.6979  31.7044  31.7044
    32.1998  34.9022  39.2794  39.2794  39.3043  41.0944  46.4471  46.4471

     occupation numbers 
     1.0000   1.0000   1.0000   1.0000   0.0000   0.0000   0.0000   0.0000
     0.0000   0.0000   0.0000   0.0000   0.0000   0.0000   0.0000   0.0000
     0.0000   0.0000   0.0000   0.0000   0.0000   0.0000   0.0000   0.0000

          k = 0.1650-0.1650 1.0052 (  1094 PWs)   bands (ev):

    -2.6663   0.2845   3.0603   4.5532  10.0312  11.9737  18.8511  19.1005
    20.3963  23.5859  25.5773  28.8069  29.4553  31.2978  32.0184  33.3698
    34.9535  36.6032  37.2769  37.7047  38.5358  41.1503  43.2105  45.4242

     occupation numbers 
     1.0000   1.0000   1.0000   1.0000   0.0000   0.0000   0.0000   0.0000
     0.0000   0.0000   0.0000   0.0000   0.0000   0.0000   0.0000   0.0000
     0.0000   0.0000   0.0000   0.0000   0.0000   0.0000   0.0000   0.0000

          k = 0.0825-0.0825 0.9214 (  1095 PWs)   bands (ev):

    -2.8856   0.4018   3.9148   4.3936   9.8040  10.5335  19.4498  19.4594
    21.2592  25.3768  25.7064  27.9320  28.0036  30.3604  31.9381  33.4010
    34.8375  35.9948  36.3742  37.9114  38.7297  40.0378  44.7566  46.2944

     occupation numbers 
     1.0000   1.0000   1.0000   1.0000   0.0000   0.0000   0.0000   0.0000
     0.0000   0.0000   0.0000   0.0000   0.0000   0.0000   0.0000   0.0000
     0.0000   0.0000   0.0000   0.0000   0.0000   0.0000   0.0000   0.0000

          k =-0.8251-0.9901 0.0000 (  1086 PWs)   bands (ev):

    -2.6603   0.2005   3.9082   3.9581  10.4686  10.4957  19.1595  19.4649
    21.1372  25.2053  25.2135  27.6169  29.5433  30.2377  32.5715  33.7806
    34.7823  35.6936  37.1739  37.1904  39.2185  39.3260  44.4768  44.8886

     occupation numbers 
     1.0000   1.0000   1.0000   1.0000   0.0000   0.0000   0.0000   0.0000
     0.0000   0.0000   0.0000   0.0000   0.0000   0.0000   0.0000   0.0000
     0.0000   0.0000   0.0000   0.0000   0.0000   0.0000   0.0000   0.0000

          k = 0.0000 0.0000-1.0052 (  1098 PWs)   bands (ev):

    -2.6925   0.1082   4.2872   4.2872   9.7340   9.7684  19.9590  19.9590
    21.5249  26.3139  26.7838  26.7838  27.2054  29.0588  33.9707  33.9707
    34.7880  36.5766  36.8387  36.8387  36.8647  38.0510  46.2747  46.2747

     occupation numbers 
     1.0000   1.0000   1.0000   1.0000   0.0000   0.0000   0.0000   0.0000
     0.0000   0.0000   0.0000   0.0000   0.0000   0.0000   0.0000   0.0000
     0.0000   0.0000   0.0000   0.0000   0.0000   0.0000   0.0000   0.0000

     highest occupied, lowest unoccupied level (ev):     8.5451    9.4939

!    total energy              =     -18.47311338 Ry
     Harris-Foulkes estimate   =     -18.47311338 Ry
     estimated scf accuracy    <          1.3E-12 Ry

     The total energy is the sum of the following terms:

     one-electron contribution =       5.66748769 Ry
     hartree contribution      =       1.23443796 Ry
     xc contribution           =      -5.38130262 Ry
     ewald contribution        =     -19.99373641 Ry

     convergence has been achieved in   8 iterations

     Forces acting on atoms (cartesian axes, Ry/au):

     atom    1 type  2   force =     0.00000000    0.00000000    0.00000000
     atom    2 type  1   force =    -0.00000000   -0.00000000   -0.00000000
     The non-local contrib.  to forces
     atom    1 type  2   force =     0.00000000    0.00000000    0.00000000
     atom    2 type  1   force =     0.00000000    0.00000000    0.00000000
     The ionic contribution  to forces
     atom    1 type  2   force =    -0.00000000    0.00000000    0.00000000
     atom    2 type  1   force =     0.00000000   -0.00000000   -0.00000000
     The local contribution  to forces
     atom    1 type  2   force =    -0.00000000    0.00000000    0.00000000
     atom    2 type  1   force =    -0.00000000    0.00000000    0.00000000
     The core correction contribution to forces
     atom    1 type  2   force =     0.00000000    0.00000000    0.00000000
     atom    2 type  1   force =     0.00000000    0.00000000    0.00000000
     The Hubbard contrib.    to forces
     atom    1 type  2   force =     0.00000000    0.00000000    0.00000000
     atom    2 type  1   force =     0.00000000    0.00000000    0.00000000
     The SCF correction term to forces
     atom    1 type  2   force =    -0.00000000   -0.00000000   -0.00000000
     atom    2 type  1   force =    -0.00000000    0.00000000   -0.00000000

     Total force =     0.000000     Total SCF correction =     0.000000


     Computing stress (Cartesian axis) and pressure

          total   stress  (Ry/bohr**3)                   (kbar)     P=  -21.20
  -0.00021581   0.00000000  -0.00000000        -31.75      0.00     -0.00
   0.00000000  -0.00021581   0.00000000          0.00    -31.75      0.00
  -0.00000000   0.00000000  -0.00000076         -0.00      0.00     -0.11

     kinetic stress (kbar)   4519.70     -0.00      0.00
                               -0.00   4519.70      0.00
                                0.00      0.00   4557.61

     local   stress (kbar)   -165.21      0.00     -0.00
                                0.00   -165.21     -0.00
                               -0.00     -0.00    -54.47

     nonloc. stress (kbar)   1945.09      0.00      0.00
                                0.00   1945.09      0.00
                                0.00      0.00   1947.13

     hartree stress (kbar)    338.60      0.00     -0.00
                                0.00    338.60      0.00
                               -0.00      0.00    319.09

     exc-cor stress (kbar)  -1324.21      0.00      0.00
                                0.00  -1324.21      0.00
                                0.00      0.00  -1324.21

     corecor stress (kbar)      0.00      0.00      0.00
                                0.00      0.00      0.00
                                0.00      0.00      0.00

     ewald   stress (kbar)  -5345.73     -0.00     -0.00
                               -0.00  -5345.73      0.00
                               -0.00      0.00  -5445.26

     hubbard stress (kbar)      0.00      0.00      0.00
                                0.00      0.00      0.00
                                0.00      0.00      0.00

     london  stress (kbar)      0.00      0.00      0.00
                                0.00      0.00      0.00
                                0.00      0.00      0.00

     DFT-D3  stress (kbar)      0.00      0.00      0.00
                                0.00      0.00      0.00
                                0.00      0.00      0.00

     XDM     stress (kbar)      0.00      0.00      0.00
                                0.00      0.00      0.00
                                0.00      0.00      0.00

     dft-nl  stress (kbar)      0.00      0.00      0.00
                                0.00      0.00      0.00
                                0.00      0.00      0.00

     TS-vdW  stress (kbar)      0.00      0.00      0.00
                                0.00      0.00      0.00
                                0.00      0.00      0.00



     Writing output data file BAs.save/

     init_run     :      0.91s CPU      0.92s WALL (       1 calls)
     electrons    :     29.02s CPU     29.61s WALL (       1 calls)
     forces       :      0.09s CPU      0.09s WALL (       1 calls)
     stress       :      0.27s CPU      0.27s WALL (       1 calls)

     Called by init_run:
     wfcinit      :      0.80s CPU      0.82s WALL (       1 calls)
     wfcinit:atom :      0.01s CPU      0.01s WALL (      41 calls)
     wfcinit:wfcr :      0.78s CPU      0.79s WALL (      41 calls)
     potinit      :      0.01s CPU      0.01s WALL (       1 calls)
     hinit0       :      0.09s CPU      0.09s WALL (       1 calls)

     Called by electrons:
     c_bands      :     26.00s CPU     26.56s WALL (       8 calls)
     sum_band     :      2.98s CPU      3.00s WALL (       8 calls)
     v_of_rho     :      0.02s CPU      0.02s WALL (       9 calls)
     v_h          :      0.01s CPU      0.01s WALL (       9 calls)
     v_xc         :      0.01s CPU      0.01s WALL (       9 calls)
     mix_rho      :      0.01s CPU      0.02s WALL (       8 calls)

     Called by c_bands:
     init_us_2    :      0.13s CPU      0.13s WALL (     779 calls)
     cegterg      :     24.42s CPU     24.61s WALL (     328 calls)

     Called by sum_band:

     Called by *egterg:
     h_psi        :     16.55s CPU     16.69s WALL (    1593 calls)
     g_psi        :      0.07s CPU      0.07s WALL (    1224 calls)
     cdiaghg      :      2.03s CPU      2.04s WALL (    1552 calls)
     cegterg:over :      2.66s CPU      2.67s WALL (    1224 calls)
     cegterg:upda :      1.85s CPU      1.86s WALL (    1224 calls)
     cegterg:last :      1.16s CPU      1.17s WALL (     369 calls)

     Called by h_psi:
     h_psi:pot    :     16.49s CPU     16.62s WALL (    1593 calls)
     h_psi:calbec :      0.33s CPU      0.33s WALL (    1593 calls)
     vloc_psi     :     15.81s CPU     15.94s WALL (    1593 calls)
     add_vuspsi   :      0.34s CPU      0.35s WALL (    1593 calls)

     General routines
     calbec       :      0.40s CPU      0.40s WALL (    1798 calls)
     fft          :      0.01s CPU      0.01s WALL (      31 calls)
     ffts         :      0.00s CPU      0.00s WALL (       8 calls)
     fftw         :     17.07s CPU     17.19s WALL (   52732 calls)

     Parallel routines

     PWSCF        :     30.44s CPU     31.13s WALL


   This run was terminated on:  17:11:49  26Aug2019            

=------------------------------------------------------------------------------=
   JOB DONE.
=------------------------------------------------------------------------------=
