                                                                                      
                                       ``:oss/                                        
                           `.+s+.     .+ys--yh+     `./ss+.                           
                          -sh//yy+`   +yy   +yy    -+h+-oyy                           
                          -yh- .oyy/.-sh.   .syo-.:sy-  /yh                           
                 `.-.`    `yh+   -oyyyo.     `/syys:    oys      `.`                  
               `/+ssys+-` `sh+      `                   oys`   .:osyo`                
               -yh- ./syyooyo`                          .sys+/oyo--yh/                
               `yy+    .-:-.                             `-/+/:`  -sh-                
                /yh.                                              oys                 
          ``..---hho---------`   .---------..`      `.-----.`    -hd+---.             
       `./osmNMMMMMMMMMMMMMMMs. +NNMMMMMMMMNNmh+.   yNMMMMMNm-  oNMMMMMNmo++:`        
       +sy--/sdMMMhyyyyyyyNMMh- .oyNMMmyyyyyhNMMm+` -yMMMdyyo:` .oyyNMMNhs+syy`       
       -yy/   /MMM+.`-+/``mMMy-   `mMMh:`````.dMMN:` `MMMy-`-dhhy```mMMy:``+hs        
        -yy+` /MMMo:-mMM+`-oo/.    mMMh:     `dMMN/`  dMMm:`dMMMMy..MMMo-.+yo`        
         .sys`/MMMMNNMMMs-         mMMmyooooymMMNo:   oMMM/sMMMMMM++MMN//oh:          
          `sh+/MMMhyyMMMs- `-`     mMMMMMMMMMNmy+-`   -MMMhMMMsmMMmdMMd/yy+           
    `-/+++oyy-/MMM+.`/hh/.`mNm:`   mMMd+/////:-.`      NMMMMMd/:NMMMMMy:/yyo/:.`      
   +os+//:-..-oMMMo:--:::-/MMMo. .-mMMd+---`           hMMMMN+. oMMMMMo. `-+osyso:`   
   syo     `mNMMMMMNNNNNNNNMMMo.oNNMMMMMNNNN:`         +MMMMs:`  dMMMN/`     ``:syo   
   /yh`     :syyyyyyyyyyyyyyyy+.`+syyyyyyyyo:`         .oyys:`   .oyys:`        +yh   
   -yh-        ````````````````    `````````              ``        ``          oys   
   -+h/------------------------::::::::://////++++++++++++++++++++++///////::::/yd:   
   shdddddddddddddddddddddddddddddhhhhhhhhyyyyyssssssssssssssssyyyyyyyhhhhhhhddddh`   
                                                                                      
  S. Ponce, E. R. Margine, C. Verdi, and F. Giustino,                                 
                                                Comput. Phys. Commun. 209, 116 (2016) 
                                                                                      

     Program EPW v.5.1.0 starts on  2Jul2019 at 18:25:41 

     This program is part of the open-source Quantum ESPRESSO suite
     for quantum simulation of materials; please cite
         "P. Giannozzi et al., J. Phys.:Condens. Matter 21 395502 (2009);
         "P. Giannozzi et al., J. Phys.:Condens. Matter 29 465901 (2017);
          URL http://www.quantum-espresso.org", 
     in publications or presentations arising from this work. More details at
     http://www.quantum-espresso.org/quote

     Parallel version (MPI), running on  1428 processors

     MPI processes distributed on    21 nodes
     K-points division:     npool     =    1428
                      
     ------------------------------------------------------------------------ 
                   RESTART - RESTART - RESTART - RESTART                         
     Restart is done without reading PWSCF save file.                  
     Be aware that some consistency checks are therefore not done.                  
     ------------------------------------------------------------------------ 
                      

     --                                                                         

     bravais-lattice index     =            0
     lattice parameter (a_0)   =       0.0000  a.u.
     unit-cell volume          =       0.0000 (a.u.)^3
     number of atoms/cell      =            0
     number of atomic types    =            0
     kinetic-energy cut-off    =       0.0000  Ry
     charge density cut-off    =       0.0000  Ry
     Exchange-correlation      = not set (-1 -1 -1 -1-1-1)


     celldm(1)=    0.00000  celldm(2)=    0.00000  celldm(3)=    0.00000
     celldm(4)=    0.00000  celldm(5)=    0.00000  celldm(6)=    0.00000

     crystal axes: (cart. coord. in units of a_0)
               a(1) = (  0.0000  0.0000  0.0000 )  
               a(2) = (  0.0000  0.0000  0.0000 )  
               a(3) = (  0.0000  0.0000  0.0000 )  

     reciprocal axes: (cart. coord. in units 2 pi/a_0)
               b(1) = (  0.0000  0.0000  0.0000 )  
               b(2) = (  0.0000  0.0000  0.0000 )  
               b(3) = (  0.0000  0.0000  0.0000 )  


     Atoms inside the unit cell: 

   Cartesian axes

     site n.  atom      mass           positions (a_0 units)

 
     No symmetry!
                                    s                        frac. trans.

     G cutoff =    0.0000  (      0 G-vectors)     FFT grid: (  0,  0,  0)
     number of k points=    0
                       cart. coord. in units 2pi/a_0

                       cryst. coord.
     EPW          :      0.02s CPU      0.07s WALL

     EPW          :      0.02s CPU      0.07s WALL

     No wavefunction gauge setting applied

     -------------------------------------------------------------------
     Using BAs.ukk from disk
     -------------------------------------------------------------------


     Using kmap and kgmap from disk

     Do not need to read .epb files; read .fmt files


     Band disentanglement is used:  nbndsub =    8

     Computes the analytic long-range interaction for polar materials [lpolar]
      
     Use zone-centred Wigner-Seitz cells 
     Number of WS vectors for electrons     1817
     Number of WS vectors for phonons      243
     Number of WS vectors for electron-phonon      243
     Maximum number of cores for efficient parallelization     1458
     Results may improve by using use_ws == .true. 

     Reading Hamiltonian, Dynamical matrix and EP vertex in Wann rep from file


     Reading interatomic force constants

     Read Z* and epsilon
     IFC last   -0.0000517
      Imposed simple ASR

     Finished reading ifcs


     Finished reading Wann rep data from file

     ===================================================================
     Memory usage:  VmHWM =        23Mb
                   VmPeak =      1835Mb
     ===================================================================
     
     Using uniform q-mesh:  120 120 120
     Size of q point mesh for interpolation:    1728000
     Using uniform MP k-mesh:  120 120 120
     Size of k point mesh for interpolation:     225182
     Max number of k points per pool:              158

     Fermi energy coarse grid =   0.000000 eV

     ===================================================================

     Fermi energy is read from the input file: Ef =   9.110000 eV

     ===================================================================

              ibndmin =     2  ebndmin =     0.606
              ibndmax =     6  ebndmax =     0.734


     Number of ep-matrix elements per pool :        11850 ~=   92.58 Kb (@ 8 bytes/ DP)
      
     Reading selecq.fmt file. 
     We only need to compute   562507 q-points
      
     Restart from tau_CB:     480500/    562507
     Restart from tau:     480500/    562507
     Progression iq (fine) =     480500/    562507

     Temperature  300.000 K
     Valence band maximum    =   8.545084 eV
     Conduction band minimum =   9.486759 eV
     Mobility VB Fermi level   8.583332 eV
     Valence band maximum    =   8.545084 eV
     Conduction band minimum =   9.486759 eV
     Mobility CB Fermi level   9.423140 eV
     Progression iq (fine) =     481000/    562507
     Creation of a restart point

     ===================================================================
     Temp [K]  Fermi [eV]  Hole density [cm^-3]  Hole mobility [cm^2/Vs]
     ===================================================================

      300.000      8.5833       0.100000E+19       0.691515E+04  x-axis
                                                   0.694015E+04  y-axis
                                                   0.755006E+04  z-axis
                                                   0.713512E+04     avg

     ===================================================================
     Temp [K]  Fermi [eV]  Elec density [cm^-3]  Elec mobility [cm^2/Vs]
     ===================================================================

      300.000      9.4231       0.100000E+19       0.130317E+04  x-axis
                                                   0.425319E+04  y-axis
                                                   0.440630E+04  z-axis
                                                   0.332088E+04     avg

     Note: Mobility are sorted by ascending values and might not correspond
                                              to the expected (x,y,z) axis.

     Total time so far
     SCAT         :    198.31s CPU    205.47s WALL (     501 calls)
     MOB          :    198.07s CPU    199.23s WALL (       1 calls)

     Progression iq (fine) =     481500/    562507
     Creation of a restart point

     ===================================================================
     Temp [K]  Fermi [eV]  Hole density [cm^-3]  Hole mobility [cm^2/Vs]
     ===================================================================

      300.000      8.5833       0.100000E+19       0.691261E+04  x-axis
                                                   0.693762E+04  y-axis
                                                   0.754247E+04  z-axis
                                                   0.713090E+04     avg

     ===================================================================
     Temp [K]  Fermi [eV]  Elec density [cm^-3]  Elec mobility [cm^2/Vs]
     ===================================================================

      300.000      9.4231       0.100000E+19       0.130231E+04  x-axis
                                                   0.425299E+04  y-axis
                                                   0.440611E+04  z-axis
                                                   0.332047E+04     avg

     Note: Mobility are sorted by ascending values and might not correspond
                                              to the expected (x,y,z) axis.

     Total time so far
     SCAT         :    395.70s CPU    403.53s WALL (    1002 calls)
     MOB          :    395.05s CPU    396.39s WALL (       2 calls)

     Progression iq (fine) =     482000/    562507
     Creation of a restart point

     ===================================================================
     Temp [K]  Fermi [eV]  Hole density [cm^-3]  Hole mobility [cm^2/Vs]
     ===================================================================

      300.000      8.5833       0.100000E+19       0.691204E+04  x-axis
                                                   0.693704E+04  y-axis
                                                   0.754074E+04  z-axis
                                                   0.712994E+04     avg

     ===================================================================
     Temp [K]  Fermi [eV]  Elec density [cm^-3]  Elec mobility [cm^2/Vs]
     ===================================================================

      300.000      9.4231       0.100000E+19       0.130231E+04  x-axis
                                                   0.425299E+04  y-axis
                                                   0.440611E+04  z-axis
                                                   0.332047E+04     avg

     Note: Mobility are sorted by ascending values and might not correspond
                                              to the expected (x,y,z) axis.

     Total time so far
     SCAT         :    593.66s CPU    610.21s WALL (    1503 calls)
     MOB          :    592.66s CPU    602.61s WALL (       3 calls)

     Progression iq (fine) =     482500/    562507
     Creation of a restart point

     ===================================================================
     Temp [K]  Fermi [eV]  Hole density [cm^-3]  Hole mobility [cm^2/Vs]
     ===================================================================

      300.000      8.5833       0.100000E+19       0.691204E+04  x-axis
                                                   0.693704E+04  y-axis
                                                   0.754074E+04  z-axis
                                                   0.712994E+04     avg

     ===================================================================
     Temp [K]  Fermi [eV]  Elec density [cm^-3]  Elec mobility [cm^2/Vs]
     ===================================================================

      300.000      9.4231       0.100000E+19       0.130231E+04  x-axis
                                                   0.425299E+04  y-axis
                                                   0.440611E+04  z-axis
                                                   0.332047E+04     avg

     Note: Mobility are sorted by ascending values and might not correspond
                                              to the expected (x,y,z) axis.

     Total time so far
     SCAT         :    791.21s CPU    808.16s WALL (    2004 calls)
     MOB          :    790.02s CPU    800.15s WALL (       4 calls)

     Progression iq (fine) =     483000/    562507
     Creation of a restart point

     ===================================================================
     Temp [K]  Fermi [eV]  Hole density [cm^-3]  Hole mobility [cm^2/Vs]
     ===================================================================

      300.000      8.5833       0.100000E+19       0.691204E+04  x-axis
                                                   0.693704E+04  y-axis
                                                   0.754074E+04  z-axis
                                                   0.712994E+04     avg

     ===================================================================
     Temp [K]  Fermi [eV]  Elec density [cm^-3]  Elec mobility [cm^2/Vs]
     ===================================================================

      300.000      9.4231       0.100000E+19       0.130230E+04  x-axis
                                                   0.425299E+04  y-axis
                                                   0.440611E+04  z-axis
                                                   0.332047E+04     avg

     Note: Mobility are sorted by ascending values and might not correspond
                                              to the expected (x,y,z) axis.

     Total time so far
     SCAT         :    988.97s CPU   1007.02s WALL (    2505 calls)
     MOB          :    987.52s CPU    998.69s WALL (       5 calls)

     Progression iq (fine) =     483500/    562507
     Creation of a restart point

     ===================================================================
     Temp [K]  Fermi [eV]  Hole density [cm^-3]  Hole mobility [cm^2/Vs]
     ===================================================================

      300.000      8.5833       0.100000E+19       0.691204E+04  x-axis
                                                   0.693704E+04  y-axis
                                                   0.754074E+04  z-axis
                                                   0.712994E+04     avg

     ===================================================================
     Temp [K]  Fermi [eV]  Elec density [cm^-3]  Elec mobility [cm^2/Vs]
     ===================================================================

      300.000      9.4231       0.100000E+19       0.130230E+04  x-axis
                                                   0.425299E+04  y-axis
                                                   0.440611E+04  z-axis
                                                   0.332047E+04     avg

     Note: Mobility are sorted by ascending values and might not correspond
                                              to the expected (x,y,z) axis.

     Total time so far
     SCAT         :   1186.71s CPU   1206.20s WALL (    3006 calls)
     MOB          :   1185.02s CPU   1197.62s WALL (       6 calls)

     Progression iq (fine) =     484000/    562507
     Creation of a restart point

     ===================================================================
     Temp [K]  Fermi [eV]  Hole density [cm^-3]  Hole mobility [cm^2/Vs]
     ===================================================================

      300.000      8.5833       0.100000E+19       0.691203E+04  x-axis
                                                   0.693704E+04  y-axis
                                                   0.754072E+04  z-axis
                                                   0.712993E+04     avg

     ===================================================================
     Temp [K]  Fermi [eV]  Elec density [cm^-3]  Elec mobility [cm^2/Vs]
     ===================================================================

      300.000      9.4231       0.100000E+19       0.130230E+04  x-axis
                                                   0.425299E+04  y-axis
                                                   0.440611E+04  z-axis
                                                   0.332047E+04     avg

     Note: Mobility are sorted by ascending values and might not correspond
                                              to the expected (x,y,z) axis.

     Total time so far
     SCAT         :   1384.08s CPU   1407.69s WALL (    3507 calls)
     MOB          :   1382.16s CPU   1395.59s WALL (       7 calls)

     Progression iq (fine) =     484500/    562507
     Creation of a restart point

     ===================================================================
     Temp [K]  Fermi [eV]  Hole density [cm^-3]  Hole mobility [cm^2/Vs]
     ===================================================================

      300.000      8.5833       0.100000E+19       0.691188E+04  x-axis
                                                   0.693689E+04  y-axis
                                                   0.754049E+04  z-axis
                                                   0.712975E+04     avg

     ===================================================================
     Temp [K]  Fermi [eV]  Elec density [cm^-3]  Elec mobility [cm^2/Vs]
     ===================================================================

      300.000      9.4231       0.100000E+19       0.130197E+04  x-axis
                                                   0.425286E+04  y-axis
                                                   0.440598E+04  z-axis
                                                   0.332027E+04     avg

     Note: Mobility are sorted by ascending values and might not correspond
                                              to the expected (x,y,z) axis.

     Total time so far
     SCAT         :   1581.65s CPU   1605.59s WALL (    4008 calls)
     MOB          :   1579.48s CPU   1593.18s WALL (       8 calls)

     Progression iq (fine) =     485000/    562507
     Creation of a restart point

     ===================================================================
     Temp [K]  Fermi [eV]  Hole density [cm^-3]  Hole mobility [cm^2/Vs]
     ===================================================================

      300.000      8.5833       0.100000E+19       0.690607E+04  x-axis
                                                   0.693107E+04  y-axis
                                                   0.752566E+04  z-axis
                                                   0.712094E+04     avg

     ===================================================================
     Temp [K]  Fermi [eV]  Elec density [cm^-3]  Elec mobility [cm^2/Vs]
     ===================================================================

      300.000      9.4231       0.100000E+19       0.130006E+04  x-axis
                                                   0.425244E+04  y-axis
                                                   0.440557E+04  z-axis
                                                   0.331936E+04     avg

     Note: Mobility are sorted by ascending values and might not correspond
                                              to the expected (x,y,z) axis.

     Total time so far
     SCAT         :   1779.90s CPU   1804.65s WALL (    4509 calls)
     MOB          :   1777.03s CPU   1791.49s WALL (       9 calls)

     Progression iq (fine) =     485500/    562507
     Creation of a restart point

     ===================================================================
     Temp [K]  Fermi [eV]  Hole density [cm^-3]  Hole mobility [cm^2/Vs]
     ===================================================================

      300.000      8.5833       0.100000E+19       0.690554E+04  x-axis
                                                   0.693054E+04  y-axis
                                                   0.752509E+04  z-axis
                                                   0.712039E+04     avg

     ===================================================================
     Temp [K]  Fermi [eV]  Elec density [cm^-3]  Elec mobility [cm^2/Vs]
     ===================================================================

      300.000      9.4231       0.100000E+19       0.130006E+04  x-axis
                                                   0.425244E+04  y-axis
                                                   0.440557E+04  z-axis
                                                   0.331936E+04     avg

     Note: Mobility are sorted by ascending values and might not correspond
                                              to the expected (x,y,z) axis.

     Total time so far
     SCAT         :   1977.78s CPU   2002.74s WALL (    5010 calls)
     MOB          :   1974.61s CPU   1989.26s WALL (      10 calls)

     Progression iq (fine) =     486000/    562507
     Creation of a restart point

     ===================================================================
     Temp [K]  Fermi [eV]  Hole density [cm^-3]  Hole mobility [cm^2/Vs]
     ===================================================================

      300.000      8.5833       0.100000E+19       0.690554E+04  x-axis
                                                   0.693054E+04  y-axis
                                                   0.752509E+04  z-axis
                                                   0.712039E+04     avg

     ===================================================================
     Temp [K]  Fermi [eV]  Elec density [cm^-3]  Elec mobility [cm^2/Vs]
     ===================================================================

      300.000      9.4231       0.100000E+19       0.130006E+04  x-axis
                                                   0.425244E+04  y-axis
                                                   0.440557E+04  z-axis
                                                   0.331936E+04     avg

     Note: Mobility are sorted by ascending values and might not correspond
                                              to the expected (x,y,z) axis.

     Total time so far
     SCAT         :   2175.44s CPU   2201.44s WALL (    5511 calls)
     MOB          :   2172.04s CPU   2187.67s WALL (      11 calls)

     Progression iq (fine) =     486500/    562507
     Creation of a restart point

     ===================================================================
     Temp [K]  Fermi [eV]  Hole density [cm^-3]  Hole mobility [cm^2/Vs]
     ===================================================================

      300.000      8.5833       0.100000E+19       0.690554E+04  x-axis
                                                   0.693054E+04  y-axis
                                                   0.752509E+04  z-axis
                                                   0.712039E+04     avg

     ===================================================================
     Temp [K]  Fermi [eV]  Elec density [cm^-3]  Elec mobility [cm^2/Vs]
     ===================================================================

      300.000      9.4231       0.100000E+19       0.130006E+04  x-axis
                                                   0.425244E+04  y-axis
                                                   0.440557E+04  z-axis
                                                   0.331936E+04     avg

     Note: Mobility are sorted by ascending values and might not correspond
                                              to the expected (x,y,z) axis.

     Total time so far
     SCAT         :   2373.25s CPU   2399.46s WALL (    6012 calls)
     MOB          :   2369.60s CPU   2385.41s WALL (      12 calls)

     Progression iq (fine) =     487000/    562507
     Creation of a restart point

     ===================================================================
     Temp [K]  Fermi [eV]  Hole density [cm^-3]  Hole mobility [cm^2/Vs]
     ===================================================================

      300.000      8.5833       0.100000E+19       0.690554E+04  x-axis
                                                   0.693054E+04  y-axis
                                                   0.752509E+04  z-axis
                                                   0.712039E+04     avg

     ===================================================================
     Temp [K]  Fermi [eV]  Elec density [cm^-3]  Elec mobility [cm^2/Vs]
     ===================================================================

      300.000      9.4231       0.100000E+19       0.130006E+04  x-axis
                                                   0.425244E+04  y-axis
                                                   0.440557E+04  z-axis
                                                   0.331936E+04     avg

     Note: Mobility are sorted by ascending values and might not correspond
                                              to the expected (x,y,z) axis.

     Total time so far
     SCAT         :   2570.91s CPU   2604.22s WALL (    6513 calls)
     MOB          :   2567.06s CPU   2586.22s WALL (      13 calls)

     Progression iq (fine) =     487500/    562507
     Creation of a restart point

     ===================================================================
     Temp [K]  Fermi [eV]  Hole density [cm^-3]  Hole mobility [cm^2/Vs]
     ===================================================================

      300.000      8.5833       0.100000E+19       0.690554E+04  x-axis
                                                   0.693054E+04  y-axis
                                                   0.752509E+04  z-axis
                                                   0.712039E+04     avg

     ===================================================================
     Temp [K]  Fermi [eV]  Elec density [cm^-3]  Elec mobility [cm^2/Vs]
     ===================================================================

      300.000      9.4231       0.100000E+19       0.130006E+04  x-axis
                                                   0.425244E+04  y-axis
                                                   0.440557E+04  z-axis
                                                   0.331936E+04     avg

     Note: Mobility are sorted by ascending values and might not correspond
                                              to the expected (x,y,z) axis.

     Total time so far
     SCAT         :   2768.79s CPU   2804.45s WALL (    7014 calls)
     MOB          :   2764.74s CPU   2786.10s WALL (      14 calls)

     Progression iq (fine) =     488000/    562507
     Creation of a restart point

     ===================================================================
     Temp [K]  Fermi [eV]  Hole density [cm^-3]  Hole mobility [cm^2/Vs]
     ===================================================================

      300.000      8.5833       0.100000E+19       0.690550E+04  x-axis
                                                   0.693049E+04  y-axis
                                                   0.752497E+04  z-axis
                                                   0.712032E+04     avg

     ===================================================================
     Temp [K]  Fermi [eV]  Elec density [cm^-3]  Elec mobility [cm^2/Vs]
     ===================================================================

      300.000      9.4231       0.100000E+19       0.130006E+04  x-axis
                                                   0.425244E+04  y-axis
                                                   0.440557E+04  z-axis
                                                   0.331936E+04     avg

     Note: Mobility are sorted by ascending values and might not correspond
                                              to the expected (x,y,z) axis.

     Total time so far
     SCAT         :   2966.75s CPU   3003.26s WALL (    7515 calls)
     MOB          :   2962.29s CPU   2984.44s WALL (      15 calls)

     Progression iq (fine) =     488500/    562507
     Creation of a restart point

     ===================================================================
     Temp [K]  Fermi [eV]  Hole density [cm^-3]  Hole mobility [cm^2/Vs]
     ===================================================================

      300.000      8.5833       0.100000E+19       0.690469E+04  x-axis
                                                   0.692968E+04  y-axis
                                                   0.752402E+04  z-axis
                                                   0.711946E+04     avg

     ===================================================================
     Temp [K]  Fermi [eV]  Elec density [cm^-3]  Elec mobility [cm^2/Vs]
     ===================================================================

      300.000      9.4231       0.100000E+19       0.129724E+04  x-axis
                                                   0.425156E+04  y-axis
                                                   0.440471E+04  z-axis
                                                   0.331784E+04     avg

     Note: Mobility are sorted by ascending values and might not correspond
                                              to the expected (x,y,z) axis.

     Total time so far
     SCAT         :   3164.59s CPU   3204.74s WALL (    8016 calls)
     MOB          :   3159.92s CPU   3184.90s WALL (      16 calls)

     Progression iq (fine) =     489000/    562507
     Creation of a restart point

     ===================================================================
     Temp [K]  Fermi [eV]  Hole density [cm^-3]  Hole mobility [cm^2/Vs]
     ===================================================================

      300.000      8.5833       0.100000E+19       0.689397E+04  x-axis
                                                   0.691894E+04  y-axis
                                                   0.749693E+04  z-axis
                                                   0.710328E+04     avg

     ===================================================================
     Temp [K]  Fermi [eV]  Elec density [cm^-3]  Elec mobility [cm^2/Vs]
     ===================================================================

      300.000      9.4231       0.100000E+19       0.129464E+04  x-axis
                                                   0.425098E+04  y-axis
                                                   0.440415E+04  z-axis
                                                   0.331659E+04     avg

     Note: Mobility are sorted by ascending values and might not correspond
                                              to the expected (x,y,z) axis.

     Total time so far
     SCAT         :   3362.30s CPU   3403.29s WALL (    8517 calls)
     MOB          :   3357.11s CPU   3382.89s WALL (      17 calls)

     Progression iq (fine) =     489500/    562507
     Creation of a restart point

     ===================================================================
     Temp [K]  Fermi [eV]  Hole density [cm^-3]  Hole mobility [cm^2/Vs]
     ===================================================================

      300.000      8.5833       0.100000E+19       0.689329E+04  x-axis
                                                   0.691826E+04  y-axis
                                                   0.749672E+04  z-axis
                                                   0.710275E+04     avg

     ===================================================================
     Temp [K]  Fermi [eV]  Elec density [cm^-3]  Elec mobility [cm^2/Vs]
     ===================================================================

      300.000      9.4231       0.100000E+19       0.129464E+04  x-axis
                                                   0.425098E+04  y-axis
                                                   0.440415E+04  z-axis
                                                   0.331659E+04     avg

     Note: Mobility are sorted by ascending values and might not correspond
                                              to the expected (x,y,z) axis.

     Total time so far
     SCAT         :   3560.60s CPU   3603.32s WALL (    9018 calls)
     MOB          :   3554.70s CPU   3580.69s WALL (      18 calls)

     Progression iq (fine) =     490000/    562507
     Creation of a restart point

     ===================================================================
     Temp [K]  Fermi [eV]  Hole density [cm^-3]  Hole mobility [cm^2/Vs]
     ===================================================================

      300.000      8.5833       0.100000E+19       0.689329E+04  x-axis
                                                   0.691826E+04  y-axis
                                                   0.749672E+04  z-axis
                                                   0.710275E+04     avg

     ===================================================================
     Temp [K]  Fermi [eV]  Elec density [cm^-3]  Elec mobility [cm^2/Vs]
     ===================================================================

      300.000      9.4231       0.100000E+19       0.129464E+04  x-axis
                                                   0.425098E+04  y-axis
                                                   0.440415E+04  z-axis
                                                   0.331659E+04     avg

     Note: Mobility are sorted by ascending values and might not correspond
                                              to the expected (x,y,z) axis.

     Total time so far
     SCAT         :   3758.60s CPU   3804.31s WALL (    9519 calls)
     MOB          :   3752.36s CPU   3781.29s WALL (      19 calls)

     Progression iq (fine) =     490500/    562507
     Creation of a restart point

     ===================================================================
     Temp [K]  Fermi [eV]  Hole density [cm^-3]  Hole mobility [cm^2/Vs]
     ===================================================================

      300.000      8.5833       0.100000E+19       0.689329E+04  x-axis
                                                   0.691826E+04  y-axis
                                                   0.749672E+04  z-axis
                                                   0.710275E+04     avg

     ===================================================================
     Temp [K]  Fermi [eV]  Elec density [cm^-3]  Elec mobility [cm^2/Vs]
     ===================================================================

      300.000      9.4231       0.100000E+19       0.129464E+04  x-axis
                                                   0.425098E+04  y-axis
                                                   0.440415E+04  z-axis
                                                   0.331659E+04     avg

     Note: Mobility are sorted by ascending values and might not correspond
                                              to the expected (x,y,z) axis.

     Total time so far
     SCAT         :   3956.35s CPU   4007.53s WALL (   10020 calls)
     MOB          :   3949.91s CPU   3984.19s WALL (      20 calls)

     Progression iq (fine) =     491000/    562507
     Creation of a restart point

     ===================================================================
     Temp [K]  Fermi [eV]  Hole density [cm^-3]  Hole mobility [cm^2/Vs]
     ===================================================================

      300.000      8.5833       0.100000E+19       0.689329E+04  x-axis
                                                   0.691826E+04  y-axis
                                                   0.749672E+04  z-axis
                                                   0.710275E+04     avg

     ===================================================================
     Temp [K]  Fermi [eV]  Elec density [cm^-3]  Elec mobility [cm^2/Vs]
     ===================================================================

      300.000      9.4231       0.100000E+19       0.129464E+04  x-axis
                                                   0.425098E+04  y-axis
                                                   0.440415E+04  z-axis
                                                   0.331659E+04     avg

     Note: Mobility are sorted by ascending values and might not correspond
                                              to the expected (x,y,z) axis.

     Total time so far
     SCAT         :   4153.83s CPU   4208.60s WALL (   10521 calls)
     MOB          :   4147.09s CPU   4184.89s WALL (      21 calls)

     Progression iq (fine) =     491500/    562507
     Creation of a restart point

     ===================================================================
     Temp [K]  Fermi [eV]  Hole density [cm^-3]  Hole mobility [cm^2/Vs]
     ===================================================================

      300.000      8.5833       0.100000E+19       0.689329E+04  x-axis
                                                   0.691826E+04  y-axis
                                                   0.749672E+04  z-axis
                                                   0.710275E+04     avg

     ===================================================================
     Temp [K]  Fermi [eV]  Elec density [cm^-3]  Elec mobility [cm^2/Vs]
     ===================================================================

      300.000      9.4231       0.100000E+19       0.129464E+04  x-axis
                                                   0.425097E+04  y-axis
                                                   0.440415E+04  z-axis
                                                   0.331659E+04     avg

     Note: Mobility are sorted by ascending values and might not correspond
                                              to the expected (x,y,z) axis.

     Total time so far
     SCAT         :   4351.85s CPU   4407.77s WALL (   11022 calls)
     MOB          :   4344.70s CPU   4383.55s WALL (      22 calls)

     Progression iq (fine) =     492000/    562507
     Creation of a restart point

     ===================================================================
     Temp [K]  Fermi [eV]  Hole density [cm^-3]  Hole mobility [cm^2/Vs]
     ===================================================================

      300.000      8.5833       0.100000E+19       0.689329E+04  x-axis
                                                   0.691825E+04  y-axis
                                                   0.749671E+04  z-axis
                                                   0.710275E+04     avg

     ===================================================================
     Temp [K]  Fermi [eV]  Elec density [cm^-3]  Elec mobility [cm^2/Vs]
     ===================================================================

      300.000      9.4231       0.100000E+19       0.129464E+04  x-axis
                                                   0.425097E+04  y-axis
                                                   0.440415E+04  z-axis
                                                   0.331659E+04     avg

     Note: Mobility are sorted by ascending values and might not correspond
                                              to the expected (x,y,z) axis.

     Total time so far
     SCAT         :   4549.50s CPU   4606.29s WALL (   11523 calls)
     MOB          :   4541.93s CPU   4581.61s WALL (      23 calls)

     Progression iq (fine) =     492500/    562507
     Creation of a restart point

     ===================================================================
     Temp [K]  Fermi [eV]  Hole density [cm^-3]  Hole mobility [cm^2/Vs]
     ===================================================================

      300.000      8.5833       0.100000E+19       0.689308E+04  x-axis
                                                   0.691805E+04  y-axis
                                                   0.749602E+04  z-axis
                                                   0.710238E+04     avg

     ===================================================================
     Temp [K]  Fermi [eV]  Elec density [cm^-3]  Elec mobility [cm^2/Vs]
     ===================================================================

      300.000      9.4231       0.100000E+19       0.129463E+04  x-axis
                                                   0.425097E+04  y-axis
                                                   0.440415E+04  z-axis
                                                   0.331658E+04     avg

     Note: Mobility are sorted by ascending values and might not correspond
                                              to the expected (x,y,z) axis.

     Total time so far
     SCAT         :   4747.54s CPU   4804.64s WALL (   12024 calls)
     MOB          :   4739.45s CPU   4779.38s WALL (      24 calls)

     Progression iq (fine) =     493000/    562507
     Creation of a restart point

     ===================================================================
     Temp [K]  Fermi [eV]  Hole density [cm^-3]  Hole mobility [cm^2/Vs]
     ===================================================================

      300.000      8.5833       0.100000E+19       0.688867E+04  x-axis
                                                   0.691364E+04  y-axis
                                                   0.749048E+04  z-axis
                                                   0.709759E+04     avg

     ===================================================================
     Temp [K]  Fermi [eV]  Elec density [cm^-3]  Elec mobility [cm^2/Vs]
     ===================================================================

      300.000      9.4231       0.100000E+19       0.128329E+04  x-axis
                                                   0.424744E+04  y-axis
                                                   0.440070E+04  z-axis
                                                   0.331048E+04     avg

     Note: Mobility are sorted by ascending values and might not correspond
                                              to the expected (x,y,z) axis.

     Total time so far
     SCAT         :   4945.38s CPU   5003.60s WALL (   12525 calls)
     MOB          :   4937.06s CPU   4977.77s WALL (      25 calls)

     Progression iq (fine) =     493500/    562507
     Creation of a restart point

     ===================================================================
     Temp [K]  Fermi [eV]  Hole density [cm^-3]  Hole mobility [cm^2/Vs]
     ===================================================================

      300.000      8.5833       0.100000E+19       0.687324E+04  x-axis
                                                   0.689818E+04  y-axis
                                                   0.745093E+04  z-axis
                                                   0.707412E+04     avg

     ===================================================================
     Temp [K]  Fermi [eV]  Elec density [cm^-3]  Elec mobility [cm^2/Vs]
     ===================================================================

      300.000      9.4231       0.100000E+19       0.128234E+04  x-axis
                                                   0.424723E+04  y-axis
                                                   0.440050E+04  z-axis
                                                   0.331002E+04     avg

     Note: Mobility are sorted by ascending values and might not correspond
                                              to the expected (x,y,z) axis.

     Total time so far
     SCAT         :   5143.49s CPU   5202.04s WALL (   13026 calls)
     MOB          :   5134.70s CPU   5175.60s WALL (      26 calls)

     Progression iq (fine) =     494000/    562507
     Creation of a restart point

     ===================================================================
     Temp [K]  Fermi [eV]  Hole density [cm^-3]  Hole mobility [cm^2/Vs]
     ===================================================================

      300.000      8.5833       0.100000E+19       0.687237E+04  x-axis
                                                   0.689731E+04  y-axis
                                                   0.745065E+04  z-axis
                                                   0.707344E+04     avg

     ===================================================================
     Temp [K]  Fermi [eV]  Elec density [cm^-3]  Elec mobility [cm^2/Vs]
     ===================================================================

      300.000      9.4231       0.100000E+19       0.128234E+04  x-axis
                                                   0.424723E+04  y-axis
                                                   0.440050E+04  z-axis
                                                   0.331002E+04     avg

     Note: Mobility are sorted by ascending values and might not correspond
                                              to the expected (x,y,z) axis.

     Total time so far
     SCAT         :   5341.21s CPU   5400.74s WALL (   13527 calls)
     MOB          :   5332.22s CPU   5374.04s WALL (      27 calls)

     Progression iq (fine) =     494500/    562507
     Creation of a restart point

     ===================================================================
     Temp [K]  Fermi [eV]  Hole density [cm^-3]  Hole mobility [cm^2/Vs]
     ===================================================================

      300.000      8.5833       0.100000E+19       0.687237E+04  x-axis
                                                   0.689731E+04  y-axis
                                                   0.745065E+04  z-axis
                                                   0.707344E+04     avg

     ===================================================================
     Temp [K]  Fermi [eV]  Elec density [cm^-3]  Elec mobility [cm^2/Vs]
     ===================================================================

      300.000      9.4231       0.100000E+19       0.128234E+04  x-axis
                                                   0.424723E+04  y-axis
                                                   0.440050E+04  z-axis
                                                   0.331002E+04     avg

     Note: Mobility are sorted by ascending values and might not correspond
                                              to the expected (x,y,z) axis.

     Total time so far
     SCAT         :   5539.07s CPU   5598.86s WALL (   14028 calls)
     MOB          :   5529.88s CPU   5571.90s WALL (      28 calls)

     Progression iq (fine) =     495000/    562507
     Creation of a restart point

     ===================================================================
     Temp [K]  Fermi [eV]  Hole density [cm^-3]  Hole mobility [cm^2/Vs]
     ===================================================================

      300.000      8.5833       0.100000E+19       0.687237E+04  x-axis
                                                   0.689731E+04  y-axis
                                                   0.745065E+04  z-axis
                                                   0.707344E+04     avg

     ===================================================================
     Temp [K]  Fermi [eV]  Elec density [cm^-3]  Elec mobility [cm^2/Vs]
     ===================================================================

      300.000      9.4231       0.100000E+19       0.128234E+04  x-axis
                                                   0.424723E+04  y-axis
                                                   0.440050E+04  z-axis
                                                   0.331002E+04     avg

     Note: Mobility are sorted by ascending values and might not correspond
                                              to the expected (x,y,z) axis.

     Total time so far
     SCAT         :   5737.00s CPU   5797.54s WALL (   14529 calls)
     MOB          :   5727.60s CPU   5770.34s WALL (      29 calls)

     Progression iq (fine) =     495500/    562507
     Creation of a restart point

     ===================================================================
     Temp [K]  Fermi [eV]  Hole density [cm^-3]  Hole mobility [cm^2/Vs]
     ===================================================================

      300.000      8.5833       0.100000E+19       0.687237E+04  x-axis
                                                   0.689731E+04  y-axis
                                                   0.745065E+04  z-axis
                                                   0.707344E+04     avg

     ===================================================================
     Temp [K]  Fermi [eV]  Elec density [cm^-3]  Elec mobility [cm^2/Vs]
     ===================================================================

      300.000      9.4231       0.100000E+19       0.128234E+04  x-axis
                                                   0.424723E+04  y-axis
                                                   0.440050E+04  z-axis
                                                   0.331002E+04     avg

     Note: Mobility are sorted by ascending values and might not correspond
                                              to the expected (x,y,z) axis.

     Total time so far
     SCAT         :   5934.74s CPU   5995.53s WALL (   15030 calls)
     MOB          :   5925.06s CPU   5968.00s WALL (      30 calls)

     Progression iq (fine) =     496000/    562507
     Creation of a restart point

     ===================================================================
     Temp [K]  Fermi [eV]  Hole density [cm^-3]  Hole mobility [cm^2/Vs]
     ===================================================================

      300.000      8.5833       0.100000E+19       0.687237E+04  x-axis
                                                   0.689731E+04  y-axis
                                                   0.745065E+04  z-axis
                                                   0.707344E+04     avg

     ===================================================================
     Temp [K]  Fermi [eV]  Elec density [cm^-3]  Elec mobility [cm^2/Vs]
     ===================================================================

      300.000      9.4231       0.100000E+19       0.128233E+04  x-axis
                                                   0.424723E+04  y-axis
                                                   0.440050E+04  z-axis
                                                   0.331002E+04     avg

     Note: Mobility are sorted by ascending values and might not correspond
                                              to the expected (x,y,z) axis.

     Total time so far
     SCAT         :   6132.78s CPU   6222.67s WALL (   15531 calls)
     MOB          :   6122.80s CPU   6194.79s WALL (      31 calls)

     Progression iq (fine) =     496500/    562507
     Creation of a restart point

     ===================================================================
     Temp [K]  Fermi [eV]  Hole density [cm^-3]  Hole mobility [cm^2/Vs]
     ===================================================================

      300.000      8.5833       0.100000E+19       0.687237E+04  x-axis
                                                   0.689731E+04  y-axis
                                                   0.745065E+04  z-axis
                                                   0.707344E+04     avg

     ===================================================================
     Temp [K]  Fermi [eV]  Elec density [cm^-3]  Elec mobility [cm^2/Vs]
     ===================================================================

      300.000      9.4231       0.100000E+19       0.128233E+04  x-axis
                                                   0.424723E+04  y-axis
                                                   0.440050E+04  z-axis
                                                   0.331002E+04     avg

     Note: Mobility are sorted by ascending values and might not correspond
                                              to the expected (x,y,z) axis.

     Total time so far
     SCAT         :   6330.43s CPU   6441.34s WALL (   16032 calls)
     MOB          :   6320.12s CPU   6412.88s WALL (      32 calls)

     Progression iq (fine) =     497000/    562507
     Creation of a restart point

     ===================================================================
     Temp [K]  Fermi [eV]  Hole density [cm^-3]  Hole mobility [cm^2/Vs]
     ===================================================================

      300.000      8.5833       0.100000E+19       0.687229E+04  x-axis
                                                   0.689723E+04  y-axis
                                                   0.745057E+04  z-axis
                                                   0.707336E+04     avg

     ===================================================================
     Temp [K]  Fermi [eV]  Elec density [cm^-3]  Elec mobility [cm^2/Vs]
     ===================================================================

      300.000      9.4231       0.100000E+19       0.128233E+04  x-axis
                                                   0.424723E+04  y-axis
                                                   0.440050E+04  z-axis
                                                   0.331002E+04     avg

     Note: Mobility are sorted by ascending values and might not correspond
                                              to the expected (x,y,z) axis.

     Total time so far
     SCAT         :   6528.44s CPU   6681.73s WALL (   16533 calls)
     MOB          :   6517.83s CPU   6642.75s WALL (      33 calls)

     Progression iq (fine) =     497500/    562507
     Creation of a restart point

     ===================================================================
     Temp [K]  Fermi [eV]  Hole density [cm^-3]  Hole mobility [cm^2/Vs]
     ===================================================================

      300.000      8.5833       0.100000E+19       0.687108E+04  x-axis
                                                   0.689603E+04  y-axis
                                                   0.744645E+04  z-axis
                                                   0.707119E+04     avg

     ===================================================================
     Temp [K]  Fermi [eV]  Elec density [cm^-3]  Elec mobility [cm^2/Vs]
     ===================================================================

      300.000      9.4231       0.100000E+19       0.128079E+04  x-axis
                                                   0.424638E+04  y-axis
                                                   0.439966E+04  z-axis
                                                   0.330894E+04     avg

     Note: Mobility are sorted by ascending values and might not correspond
                                              to the expected (x,y,z) axis.

     Total time so far
     SCAT         :   6726.48s CPU   6906.25s WALL (   17034 calls)
     MOB          :   6715.32s CPU   6855.40s WALL (      34 calls)

     Progression iq (fine) =     498000/    562507
     Creation of a restart point

     ===================================================================
     Temp [K]  Fermi [eV]  Hole density [cm^-3]  Hole mobility [cm^2/Vs]
     ===================================================================

      300.000      8.5833       0.100000E+19       0.683963E+04  x-axis
                                                   0.686452E+04  y-axis
                                                   0.738760E+04  z-axis
                                                   0.703058E+04     avg

     ===================================================================
     Temp [K]  Fermi [eV]  Elec density [cm^-3]  Elec mobility [cm^2/Vs]
     ===================================================================

      300.000      9.4231       0.100000E+19       0.125955E+04  x-axis
                                                   0.423841E+04  y-axis
                                                   0.439184E+04  z-axis
                                                   0.329660E+04     avg

     Note: Mobility are sorted by ascending values and might not correspond
                                              to the expected (x,y,z) axis.

     Total time so far
     SCAT         :   6924.80s CPU   7106.34s WALL (   17535 calls)
     MOB          :   6913.08s CPU   7053.32s WALL (      35 calls)

     Progression iq (fine) =     498500/    562507
     Creation of a restart point

     ===================================================================
     Temp [K]  Fermi [eV]  Hole density [cm^-3]  Hole mobility [cm^2/Vs]
     ===================================================================

      300.000      8.5833       0.100000E+19       0.683525E+04  x-axis
                                                   0.686012E+04  y-axis
                                                   0.737857E+04  z-axis
                                                   0.702465E+04     avg

     ===================================================================
     Temp [K]  Fermi [eV]  Elec density [cm^-3]  Elec mobility [cm^2/Vs]
     ===================================================================

      300.000      9.4231       0.100000E+19       0.125955E+04  x-axis
                                                   0.423841E+04  y-axis
                                                   0.439184E+04  z-axis
                                                   0.329660E+04     avg

     Note: Mobility are sorted by ascending values and might not correspond
                                              to the expected (x,y,z) axis.

     Total time so far
     SCAT         :   7123.45s CPU   7310.69s WALL (   18036 calls)
     MOB          :   7111.10s CPU   7256.99s WALL (      36 calls)

     Progression iq (fine) =     499000/    562507
     Creation of a restart point

     ===================================================================
     Temp [K]  Fermi [eV]  Hole density [cm^-3]  Hole mobility [cm^2/Vs]
     ===================================================================

      300.000      8.5833       0.100000E+19       0.683509E+04  x-axis
                                                   0.685996E+04  y-axis
                                                   0.737854E+04  z-axis
                                                   0.702453E+04     avg

     ===================================================================
     Temp [K]  Fermi [eV]  Elec density [cm^-3]  Elec mobility [cm^2/Vs]
     ===================================================================

      300.000      9.4231       0.100000E+19       0.125955E+04  x-axis
                                                   0.423841E+04  y-axis
                                                   0.439184E+04  z-axis
                                                   0.329660E+04     avg

     Note: Mobility are sorted by ascending values and might not correspond
                                              to the expected (x,y,z) axis.

     Total time so far
     SCAT         :   7321.36s CPU   7587.85s WALL (   18537 calls)
     MOB          :   7308.67s CPU   7497.10s WALL (      37 calls)

     Progression iq (fine) =     499500/    562507
     Creation of a restart point

     ===================================================================
     Temp [K]  Fermi [eV]  Hole density [cm^-3]  Hole mobility [cm^2/Vs]
     ===================================================================

      300.000      8.5833       0.100000E+19       0.683509E+04  x-axis
                                                   0.685996E+04  y-axis
                                                   0.737854E+04  z-axis
                                                   0.702453E+04     avg

     ===================================================================
     Temp [K]  Fermi [eV]  Elec density [cm^-3]  Elec mobility [cm^2/Vs]
     ===================================================================

      300.000      9.4231       0.100000E+19       0.125955E+04  x-axis
                                                   0.423841E+04  y-axis
                                                   0.439184E+04  z-axis
                                                   0.329660E+04     avg

     Note: Mobility are sorted by ascending values and might not correspond
                                              to the expected (x,y,z) axis.

     Total time so far
     SCAT         :   7519.54s CPU   7786.27s WALL (   19038 calls)
     MOB          :   7506.52s CPU   7695.09s WALL (      38 calls)

     Progression iq (fine) =     500000/    562507
     Creation of a restart point

     ===================================================================
     Temp [K]  Fermi [eV]  Hole density [cm^-3]  Hole mobility [cm^2/Vs]
     ===================================================================

      300.000      8.5833       0.100000E+19       0.683509E+04  x-axis
                                                   0.685996E+04  y-axis
                                                   0.737854E+04  z-axis
                                                   0.702453E+04     avg

     ===================================================================
     Temp [K]  Fermi [eV]  Elec density [cm^-3]  Elec mobility [cm^2/Vs]
     ===================================================================

      300.000      9.4231       0.100000E+19       0.125955E+04  x-axis
                                                   0.423841E+04  y-axis
                                                   0.439184E+04  z-axis
                                                   0.329660E+04     avg

     Note: Mobility are sorted by ascending values and might not correspond
                                              to the expected (x,y,z) axis.

     Total time so far
     SCAT         :   7717.62s CPU   7985.53s WALL (   19539 calls)
     MOB          :   7704.07s CPU   7892.83s WALL (      39 calls)

     Progression iq (fine) =     500500/    562507
     Creation of a restart point

     ===================================================================
     Temp [K]  Fermi [eV]  Hole density [cm^-3]  Hole mobility [cm^2/Vs]
     ===================================================================

      300.000      8.5833       0.100000E+19       0.683509E+04  x-axis
                                                   0.685996E+04  y-axis
                                                   0.737854E+04  z-axis
                                                   0.702453E+04     avg

     ===================================================================
     Temp [K]  Fermi [eV]  Elec density [cm^-3]  Elec mobility [cm^2/Vs]
     ===================================================================

      300.000      9.4231       0.100000E+19       0.125955E+04  x-axis
                                                   0.423841E+04  y-axis
                                                   0.439184E+04  z-axis
                                                   0.329660E+04     avg

     Note: Mobility are sorted by ascending values and might not correspond
                                              to the expected (x,y,z) axis.

     Total time so far
     SCAT         :   7915.58s CPU   8183.70s WALL (   20040 calls)
     MOB          :   7901.56s CPU   8090.46s WALL (      40 calls)

     Progression iq (fine) =     501000/    562507
     Creation of a restart point

     ===================================================================
     Temp [K]  Fermi [eV]  Hole density [cm^-3]  Hole mobility [cm^2/Vs]
     ===================================================================

      300.000      8.5833       0.100000E+19       0.683509E+04  x-axis
                                                   0.685996E+04  y-axis
                                                   0.737854E+04  z-axis
                                                   0.702453E+04     avg

     ===================================================================
     Temp [K]  Fermi [eV]  Elec density [cm^-3]  Elec mobility [cm^2/Vs]
     ===================================================================

      300.000      9.4231       0.100000E+19       0.125955E+04  x-axis
                                                   0.423840E+04  y-axis
                                                   0.439184E+04  z-axis
                                                   0.329660E+04     avg

     Note: Mobility are sorted by ascending values and might not correspond
                                              to the expected (x,y,z) axis.

     Total time so far
     SCAT         :   8113.55s CPU   8383.40s WALL (   20541 calls)
     MOB          :   8099.12s CPU   8289.16s WALL (      41 calls)

     Progression iq (fine) =     501500/    562507
     Creation of a restart point

     ===================================================================
     Temp [K]  Fermi [eV]  Hole density [cm^-3]  Hole mobility [cm^2/Vs]
     ===================================================================

      300.000      8.5833       0.100000E+19       0.683509E+04  x-axis
                                                   0.685996E+04  y-axis
                                                   0.737854E+04  z-axis
                                                   0.702453E+04     avg

     ===================================================================
     Temp [K]  Fermi [eV]  Elec density [cm^-3]  Elec mobility [cm^2/Vs]
     ===================================================================

      300.000      9.4231       0.100000E+19       0.125955E+04  x-axis
                                                   0.423840E+04  y-axis
                                                   0.439184E+04  z-axis
                                                   0.329660E+04     avg

     Note: Mobility are sorted by ascending values and might not correspond
                                              to the expected (x,y,z) axis.

     Total time so far
     SCAT         :   8311.24s CPU   8581.33s WALL (   21042 calls)
     MOB          :   8296.58s CPU   8486.81s WALL (      42 calls)

     Progression iq (fine) =     502000/    562507
     Creation of a restart point

     ===================================================================
     Temp [K]  Fermi [eV]  Hole density [cm^-3]  Hole mobility [cm^2/Vs]
     ===================================================================

      300.000      8.5833       0.100000E+19       0.683503E+04  x-axis
                                                   0.685990E+04  y-axis
                                                   0.737850E+04  z-axis
                                                   0.702448E+04     avg

     ===================================================================
     Temp [K]  Fermi [eV]  Elec density [cm^-3]  Elec mobility [cm^2/Vs]
     ===================================================================

      300.000      9.4231       0.100000E+19       0.125955E+04  x-axis
                                                   0.423840E+04  y-axis
                                                   0.439184E+04  z-axis
                                                   0.329660E+04     avg

     Note: Mobility are sorted by ascending values and might not correspond
                                              to the expected (x,y,z) axis.

     Total time so far
     SCAT         :   8509.13s CPU   8780.28s WALL (   21543 calls)
     MOB          :   8494.17s CPU   8684.79s WALL (      43 calls)

     Progression iq (fine) =     502500/    562507
     Creation of a restart point

     ===================================================================
     Temp [K]  Fermi [eV]  Hole density [cm^-3]  Hole mobility [cm^2/Vs]
     ===================================================================

      300.000      8.5833       0.100000E+19       0.683224E+04  x-axis
                                                   0.685712E+04  y-axis
                                                   0.737040E+04  z-axis
                                                   0.701992E+04     avg

     ===================================================================
     Temp [K]  Fermi [eV]  Elec density [cm^-3]  Elec mobility [cm^2/Vs]
     ===================================================================

      300.000      9.4231       0.100000E+19       0.125867E+04  x-axis
                                                   0.423780E+04  y-axis
                                                   0.439124E+04  z-axis
                                                   0.329590E+04     avg

     Note: Mobility are sorted by ascending values and might not correspond
                                              to the expected (x,y,z) axis.

     Total time so far
     SCAT         :   8707.63s CPU   8979.12s WALL (   22044 calls)
     MOB          :   8692.13s CPU   8883.03s WALL (      44 calls)

     Progression iq (fine) =     503000/    562507
     Creation of a restart point

     ===================================================================
     Temp [K]  Fermi [eV]  Hole density [cm^-3]  Hole mobility [cm^2/Vs]
     ===================================================================

      300.000      8.5833       0.100000E+19       0.679290E+04  x-axis
                                                   0.681771E+04  y-axis
                                                   0.730807E+04  z-axis
                                                   0.697289E+04     avg

     ===================================================================
     Temp [K]  Fermi [eV]  Elec density [cm^-3]  Elec mobility [cm^2/Vs]
     ===================================================================

      300.000      9.4231       0.100000E+19       0.122225E+04  x-axis
                                                   0.422004E+04  y-axis
                                                   0.437370E+04  z-axis
                                                   0.327200E+04     avg

     Note: Mobility are sorted by ascending values and might not correspond
                                              to the expected (x,y,z) axis.

     Total time so far
     SCAT         :   8905.98s CPU   9178.53s WALL (   22545 calls)
     MOB          :   8889.96s CPU   9081.24s WALL (      45 calls)

     Progression iq (fine) =     503500/    562507
     Creation of a restart point

     ===================================================================
     Temp [K]  Fermi [eV]  Hole density [cm^-3]  Hole mobility [cm^2/Vs]
     ===================================================================

      300.000      8.5833       0.100000E+19       0.678104E+04  x-axis
                                                   0.680579E+04  y-axis
                                                   0.727340E+04  z-axis
                                                   0.695341E+04     avg

     ===================================================================
     Temp [K]  Fermi [eV]  Elec density [cm^-3]  Elec mobility [cm^2/Vs]
     ===================================================================

      300.000      9.4231       0.100000E+19       0.122217E+04  x-axis
                                                   0.422002E+04  y-axis
                                                   0.437368E+04  z-axis
                                                   0.327196E+04     avg

     Note: Mobility are sorted by ascending values and might not correspond
                                              to the expected (x,y,z) axis.

     Total time so far
     SCAT         :   9104.51s CPU   9377.59s WALL (   23046 calls)
     MOB          :   9087.77s CPU   9279.57s WALL (      46 calls)

     Progression iq (fine) =     504000/    562507
     Creation of a restart point

     ===================================================================
     Temp [K]  Fermi [eV]  Hole density [cm^-3]  Hole mobility [cm^2/Vs]
     ===================================================================

      300.000      8.5833       0.100000E+19       0.678047E+04  x-axis
                                                   0.680521E+04  y-axis
                                                   0.727328E+04  z-axis
                                                   0.695299E+04     avg

     ===================================================================
     Temp [K]  Fermi [eV]  Elec density [cm^-3]  Elec mobility [cm^2/Vs]
     ===================================================================

      300.000      9.4231       0.100000E+19       0.122217E+04  x-axis
                                                   0.422002E+04  y-axis
                                                   0.437368E+04  z-axis
                                                   0.327196E+04     avg

     Note: Mobility are sorted by ascending values and might not correspond
                                              to the expected (x,y,z) axis.

     Total time so far
     SCAT         :   9302.54s CPU   9576.48s WALL (   23547 calls)
     MOB          :   9285.49s CPU   9477.49s WALL (      47 calls)

     Progression iq (fine) =     504500/    562507
     Creation of a restart point

     ===================================================================
     Temp [K]  Fermi [eV]  Hole density [cm^-3]  Hole mobility [cm^2/Vs]
     ===================================================================

      300.000      8.5833       0.100000E+19       0.678047E+04  x-axis
                                                   0.680521E+04  y-axis
                                                   0.727328E+04  z-axis
                                                   0.695299E+04     avg

     ===================================================================
     Temp [K]  Fermi [eV]  Elec density [cm^-3]  Elec mobility [cm^2/Vs]
     ===================================================================

      300.000      9.4231       0.100000E+19       0.122217E+04  x-axis
                                                   0.422002E+04  y-axis
                                                   0.437368E+04  z-axis
                                                   0.327196E+04     avg

     Note: Mobility are sorted by ascending values and might not correspond
                                              to the expected (x,y,z) axis.

     Total time so far
     SCAT         :   9500.87s CPU   9775.04s WALL (   24048 calls)
     MOB          :   9483.27s CPU   9675.45s WALL (      48 calls)

     Progression iq (fine) =     505000/    562507
     Creation of a restart point

     ===================================================================
     Temp [K]  Fermi [eV]  Hole density [cm^-3]  Hole mobility [cm^2/Vs]
     ===================================================================

      300.000      8.5833       0.100000E+19       0.678047E+04  x-axis
                                                   0.680521E+04  y-axis
                                                   0.727328E+04  z-axis
                                                   0.695299E+04     avg

     ===================================================================
     Temp [K]  Fermi [eV]  Elec density [cm^-3]  Elec mobility [cm^2/Vs]
     ===================================================================

      300.000      9.4231       0.100000E+19       0.122217E+04  x-axis
                                                   0.422002E+04  y-axis
                                                   0.437368E+04  z-axis
                                                   0.327196E+04     avg

     Note: Mobility are sorted by ascending values and might not correspond
                                              to the expected (x,y,z) axis.

     Total time so far
     SCAT         :   9699.21s CPU   9978.98s WALL (   24549 calls)
     MOB          :   9681.22s CPU   9878.42s WALL (      49 calls)

     Progression iq (fine) =     505500/    562507
     Creation of a restart point

     ===================================================================
     Temp [K]  Fermi [eV]  Hole density [cm^-3]  Hole mobility [cm^2/Vs]
     ===================================================================

      300.000      8.5833       0.100000E+19       0.678047E+04  x-axis
                                                   0.680521E+04  y-axis
                                                   0.727328E+04  z-axis
                                                   0.695299E+04     avg

     ===================================================================
     Temp [K]  Fermi [eV]  Elec density [cm^-3]  Elec mobility [cm^2/Vs]
     ===================================================================

      300.000      9.4231       0.100000E+19       0.122217E+04  x-axis
                                                   0.422002E+04  y-axis
                                                   0.437368E+04  z-axis
                                                   0.327196E+04     avg

     Note: Mobility are sorted by ascending values and might not correspond
                                              to the expected (x,y,z) axis.

     Total time so far
     SCAT         :   9897.20s CPU  10177.25s WALL (   25050 calls)
     MOB          :   9878.85s CPU  10076.24s WALL (      50 calls)

     Progression iq (fine) =     506000/    562507
     Creation of a restart point

     ===================================================================
     Temp [K]  Fermi [eV]  Hole density [cm^-3]  Hole mobility [cm^2/Vs]
     ===================================================================

      300.000      8.5833       0.100000E+19       0.678047E+04  x-axis
                                                   0.680521E+04  y-axis
                                                   0.727328E+04  z-axis
                                                   0.695299E+04     avg

     ===================================================================
     Temp [K]  Fermi [eV]  Elec density [cm^-3]  Elec mobility [cm^2/Vs]
     ===================================================================

      300.000      9.4231       0.100000E+19       0.122216E+04  x-axis
                                                   0.422002E+04  y-axis
                                                   0.437367E+04  z-axis
                                                   0.327195E+04     avg

     Note: Mobility are sorted by ascending values and might not correspond
                                              to the expected (x,y,z) axis.

     Total time so far
     SCAT         :  10094.95s CPU  10375.86s WALL (   25551 calls)
     MOB          :  10076.39s CPU  10274.02s WALL (      51 calls)

     Progression iq (fine) =     506500/    562507
     Creation of a restart point

     ===================================================================
[...]
     Temp [K]  Fermi [eV]  Hole density [cm^-3]  Hole mobility [cm^2/Vs]
     ===================================================================

      300.000      8.5833       0.100000E+19       0.327698E+04  x-axis
                                                   0.384035E+04  y-axis
                                                   0.385376E+04  z-axis
                                                   0.365703E+04     avg

     ===================================================================
     Temp [K]  Fermi [eV]  Elec density [cm^-3]  Elec mobility [cm^2/Vs]
     ===================================================================

      300.000      9.4231       0.100000E+19       0.514729E+03  x-axis
                                                   0.258485E+04  y-axis
                                                   0.269000E+04  z-axis
                                                   0.192986E+04     avg

     Note: Mobility are sorted by ascending values and might not correspond
                                              to the expected (x,y,z) axis.

     Total time so far
     SCAT         :  30313.81s CPU  30959.77s WALL (   76653 calls)
     MOB          :  30237.14s CPU  30648.56s WALL (     153 calls)

     Progression iq (fine) =     557500/    562507
     Creation of a restart point

     ===================================================================
     Temp [K]  Fermi [eV]  Hole density [cm^-3]  Hole mobility [cm^2/Vs]
     ===================================================================

      300.000      8.5833       0.100000E+19       0.327698E+04  x-axis
                                                   0.384034E+04  y-axis
                                                   0.385375E+04  z-axis
                                                   0.365702E+04     avg

     ===================================================================
     Temp [K]  Fermi [eV]  Elec density [cm^-3]  Elec mobility [cm^2/Vs]
     ===================================================================

      300.000      9.4231       0.100000E+19       0.514728E+03  x-axis
                                                   0.258485E+04  y-axis
                                                   0.269000E+04  z-axis
                                                   0.192986E+04     avg

     Note: Mobility are sorted by ascending values and might not correspond
                                              to the expected (x,y,z) axis.

     Total time so far
     SCAT         :  30511.96s CPU  31158.82s WALL (   77154 calls)
     MOB          :  30434.72s CPU  30847.01s WALL (     154 calls)

     Progression iq (fine) =     558000/    562507
     Creation of a restart point

     ===================================================================
     Temp [K]  Fermi [eV]  Hole density [cm^-3]  Hole mobility [cm^2/Vs]
     ===================================================================

      300.000      8.5833       0.100000E+19       0.327698E+04  x-axis
                                                   0.384034E+04  y-axis
                                                   0.385375E+04  z-axis
                                                   0.365702E+04     avg

     ===================================================================
     Temp [K]  Fermi [eV]  Elec density [cm^-3]  Elec mobility [cm^2/Vs]
     ===================================================================

      300.000      9.4231       0.100000E+19       0.514728E+03  x-axis
                                                   0.258485E+04  y-axis
                                                   0.269000E+04  z-axis
                                                   0.192986E+04     avg

     Note: Mobility are sorted by ascending values and might not correspond
                                              to the expected (x,y,z) axis.

     Total time so far
     SCAT         :  30709.82s CPU  31356.92s WALL (   77655 calls)
     MOB          :  30632.28s CPU  31044.78s WALL (     155 calls)

     Progression iq (fine) =     558500/    562507
     Creation of a restart point

     ===================================================================
     Temp [K]  Fermi [eV]  Hole density [cm^-3]  Hole mobility [cm^2/Vs]
     ===================================================================

      300.000      8.5833       0.100000E+19       0.327698E+04  x-axis
                                                   0.384034E+04  y-axis
                                                   0.385375E+04  z-axis
                                                   0.365702E+04     avg

     ===================================================================
     Temp [K]  Fermi [eV]  Elec density [cm^-3]  Elec mobility [cm^2/Vs]
     ===================================================================

      300.000      9.4231       0.100000E+19       0.514728E+03  x-axis
                                                   0.258485E+04  y-axis
                                                   0.269000E+04  z-axis
                                                   0.192986E+04     avg

     Note: Mobility are sorted by ascending values and might not correspond
                                              to the expected (x,y,z) axis.

     Total time so far
     SCAT         :  30908.58s CPU  31556.53s WALL (   78156 calls)
     MOB          :  30830.03s CPU  31243.33s WALL (     156 calls)

     Progression iq (fine) =     559000/    562507
     Creation of a restart point

     ===================================================================
     Temp [K]  Fermi [eV]  Hole density [cm^-3]  Hole mobility [cm^2/Vs]
     ===================================================================

      300.000      8.5833       0.100000E+19       0.327698E+04  x-axis
                                                   0.384034E+04  y-axis
                                                   0.385375E+04  z-axis
                                                   0.365702E+04     avg

     ===================================================================
     Temp [K]  Fermi [eV]  Elec density [cm^-3]  Elec mobility [cm^2/Vs]
     ===================================================================

      300.000      9.4231       0.100000E+19       0.514728E+03  x-axis
                                                   0.258485E+04  y-axis
                                                   0.269000E+04  z-axis
                                                   0.192986E+04     avg

     Note: Mobility are sorted by ascending values and might not correspond
                                              to the expected (x,y,z) axis.

     Total time so far
     SCAT         :  31106.76s CPU  31754.96s WALL (   78657 calls)
     MOB          :  31027.42s CPU  31440.94s WALL (     157 calls)

     Progression iq (fine) =     559500/    562507
     Creation of a restart point

     ===================================================================
     Temp [K]  Fermi [eV]  Hole density [cm^-3]  Hole mobility [cm^2/Vs]
     ===================================================================

      300.000      8.5833       0.100000E+19       0.327698E+04  x-axis
                                                   0.384034E+04  y-axis
                                                   0.385375E+04  z-axis
                                                   0.365702E+04     avg

     ===================================================================
     Temp [K]  Fermi [eV]  Elec density [cm^-3]  Elec mobility [cm^2/Vs]
     ===================================================================

      300.000      9.4231       0.100000E+19       0.514727E+03  x-axis
                                                   0.258485E+04  y-axis
                                                   0.269000E+04  z-axis
                                                   0.192986E+04     avg

     Note: Mobility are sorted by ascending values and might not correspond
                                              to the expected (x,y,z) axis.

     Total time so far
     SCAT         :  31304.67s CPU  31953.62s WALL (   79158 calls)
     MOB          :  31224.59s CPU  31638.30s WALL (     158 calls)

     Progression iq (fine) =     560000/    562507
     Creation of a restart point

     ===================================================================
     Temp [K]  Fermi [eV]  Hole density [cm^-3]  Hole mobility [cm^2/Vs]
     ===================================================================

      300.000      8.5833       0.100000E+19       0.327698E+04  x-axis
                                                   0.384034E+04  y-axis
                                                   0.385375E+04  z-axis
                                                   0.365702E+04     avg

     ===================================================================
     Temp [K]  Fermi [eV]  Elec density [cm^-3]  Elec mobility [cm^2/Vs]
     ===================================================================

      300.000      9.4231       0.100000E+19       0.514723E+03  x-axis
                                                   0.258482E+04  y-axis
                                                   0.268997E+04  z-axis
                                                   0.192984E+04     avg

     Note: Mobility are sorted by ascending values and might not correspond
                                              to the expected (x,y,z) axis.

     Total time so far
     SCAT         :  31503.53s CPU  32152.73s WALL (   79659 calls)
     MOB          :  31421.98s CPU  31835.92s WALL (     159 calls)

     Progression iq (fine) =     560500/    562507
     Creation of a restart point

     ===================================================================
     Temp [K]  Fermi [eV]  Hole density [cm^-3]  Hole mobility [cm^2/Vs]
     ===================================================================

      300.000      8.5833       0.100000E+19       0.327698E+04  x-axis
                                                   0.384034E+04  y-axis
                                                   0.385375E+04  z-axis
                                                   0.365702E+04     avg

     ===================================================================
     Temp [K]  Fermi [eV]  Elec density [cm^-3]  Elec mobility [cm^2/Vs]
     ===================================================================

      300.000      9.4231       0.100000E+19       0.514723E+03  x-axis
                                                   0.258482E+04  y-axis
                                                   0.268997E+04  z-axis
                                                   0.192984E+04     avg

     Note: Mobility are sorted by ascending values and might not correspond
                                              to the expected (x,y,z) axis.

     Total time so far
     SCAT         :  31701.52s CPU  32351.75s WALL (   80160 calls)
     MOB          :  31619.10s CPU  32033.32s WALL (     160 calls)

     Progression iq (fine) =     561000/    562507
     Creation of a restart point

     ===================================================================
     Temp [K]  Fermi [eV]  Hole density [cm^-3]  Hole mobility [cm^2/Vs]
     ===================================================================

      300.000      8.5833       0.100000E+19       0.327698E+04  x-axis
                                                   0.384034E+04  y-axis
                                                   0.385375E+04  z-axis
                                                   0.365702E+04     avg

     ===================================================================
     Temp [K]  Fermi [eV]  Elec density [cm^-3]  Elec mobility [cm^2/Vs]
     ===================================================================

      300.000      9.4231       0.100000E+19       0.514723E+03  x-axis
                                                   0.258482E+04  y-axis
                                                   0.268997E+04  z-axis
                                                   0.192984E+04     avg

     Note: Mobility are sorted by ascending values and might not correspond
                                              to the expected (x,y,z) axis.

     Total time so far
     SCAT         :  31899.90s CPU  32550.40s WALL (   80661 calls)
     MOB          :  31816.71s CPU  32231.17s WALL (     161 calls)

     Progression iq (fine) =     561500/    562507
     Creation of a restart point

     ===================================================================
     Temp [K]  Fermi [eV]  Hole density [cm^-3]  Hole mobility [cm^2/Vs]
     ===================================================================

      300.000      8.5833       0.100000E+19       0.327697E+04  x-axis
                                                   0.384034E+04  y-axis
                                                   0.385374E+04  z-axis
                                                   0.365702E+04     avg

     ===================================================================
     Temp [K]  Fermi [eV]  Elec density [cm^-3]  Elec mobility [cm^2/Vs]
     ===================================================================

      300.000      9.4231       0.100000E+19       0.514723E+03  x-axis
                                                   0.258482E+04  y-axis
                                                   0.268997E+04  z-axis
                                                   0.192984E+04     avg

     Note: Mobility are sorted by ascending values and might not correspond
                                              to the expected (x,y,z) axis.

     Total time so far
     SCAT         :  32098.27s CPU  32749.63s WALL (   81162 calls)
     MOB          :  32014.54s CPU  32429.20s WALL (     162 calls)

     Progression iq (fine) =     562000/    562507
     Creation of a restart point

     ===================================================================
     Temp [K]  Fermi [eV]  Hole density [cm^-3]  Hole mobility [cm^2/Vs]
     ===================================================================

      300.000      8.5833       0.100000E+19       0.327233E+04  x-axis
                                                   0.383591E+04  y-axis
                                                   0.384931E+04  z-axis
                                                   0.365251E+04     avg

     ===================================================================
     Temp [K]  Fermi [eV]  Elec density [cm^-3]  Elec mobility [cm^2/Vs]
     ===================================================================

      300.000      9.4231       0.100000E+19       0.514714E+03  x-axis
                                                   0.258477E+04  y-axis
                                                   0.268992E+04  z-axis
                                                   0.192980E+04     avg

     Note: Mobility are sorted by ascending values and might not correspond
                                              to the expected (x,y,z) axis.

     Total time so far
     SCAT         :  32296.86s CPU  32948.56s WALL (   81663 calls)
     MOB          :  32212.38s CPU  32627.30s WALL (     163 calls)

     Progression iq (fine) =     562500/    562507
     Creation of a restart point

     ===================================================================
     Temp [K]  Fermi [eV]  Hole density [cm^-3]  Hole mobility [cm^2/Vs]
     ===================================================================

      300.000      8.5833       0.100000E+19       0.300526E+04  x-axis
                                                   0.356983E+04  y-axis
                                                   0.358245E+04  z-axis
                                                   0.338585E+04     avg

     ===================================================================
     Temp [K]  Fermi [eV]  Elec density [cm^-3]  Elec mobility [cm^2/Vs]
     ===================================================================

      300.000      9.4231       0.100000E+19       0.488288E+03  x-axis
                                                   0.238837E+04  y-axis
                                                   0.248524E+04  z-axis
                                                   0.178730E+04     avg

     Note: Mobility are sorted by ascending values and might not correspond
                                              to the expected (x,y,z) axis.

     Total time so far
     SCAT         :  32495.94s CPU  33148.53s WALL (   82164 calls)
     MOB          :  32410.30s CPU  32825.47s WALL (     164 calls)

     Temperature  300.000 K
     Average over degenerate eigenstates is performed
     Average over degenerate eigenstates in CB is performed

     Writing scattering rate to file

     Creation of the final restart point

     ===================================================================
     Temp [K]  Fermi [eV]  Hole density [cm^-3]  Hole mobility [cm^2/Vs]
     ===================================================================

      300.000      8.5833       0.100000E+19       0.296591E+04  x-axis
                                                   0.351636E+04  y-axis
                                                   0.352871E+04  z-axis
                                                   0.333699E+04     avg

     ===================================================================
     Temp [K]  Fermi [eV]  Elec density [cm^-3]  Elec mobility [cm^2/Vs]
     ===================================================================

      300.000      9.4231       0.100000E+19       0.487470E+03  x-axis
                                                   0.238648E+04  y-axis
                                                   0.248318E+04  z-axis
                                                   0.178571E+04     avg

     Note: Mobility are sorted by ascending values and might not correspond
                                              to the expected (x,y,z) axis.

     Total time so far
     SCAT         :  32509.40s CPU  33192.33s WALL (   82172 calls)
     MOB          :  32607.44s CPU  33022.89s WALL (     165 calls)

     ===================================================================
     Memory usage:  VmHWM =       324Mb
                   VmPeak =      2239Mb
     ===================================================================

 
     Unfolding on the coarse grid
     elphon_wrap  :      0.06s CPU      0.07s WALL (       1 calls)
 
     INITIALIZATION: 
 
 
 
     Electron-Phonon interpolation
     ephwann      : 110062.91s CPU 111523.85s WALL (       1 calls)
     ep-interp    : 110047.76s CPU 111506.83s WALL (   82008 calls)
 
     DynW2B       :    135.24s CPU    136.38s WALL (   82008 calls)
     HamW2B       :   7943.64s CPU   8063.98s WALL (12957422 calls)
     ephW2Bp      :  20065.94s CPU  20396.51s WALL (   82008 calls)
 
 
     Total program execution
     EPW          :   1d 6h34m CPU   1d 6h58m WALL

                                                                                          
 Please consider citing:                                                                  
 S. Ponce, E. R. Margine, C. Verdi and F. Giustino, Comput. Phys. Commun. 209, 116 (2016) 
                                                                                          
 In addition, if you used anisotropic Eliashberg superconductivity please cite:           
              E. R. Margine and F. Giustino, Phys. Rev. B 87, 024505 (2013)               
              if you used transport properties (scattering rates, mobility) please cite:  
              S. Ponce, E. R. Margine and F. Giustino, Phys. Rev. B 97, 121201 (2018)     
