
     Program PHONON v.6.6 starts on  2Feb2021 at 11:24:57 

     This program is part of the open-source Quantum ESPRESSO suite
     for quantum simulation of materials; please cite
         "P. Giannozzi et al., J. Phys.:Condens. Matter 21 395502 (2009);
         "P. Giannozzi et al., J. Phys.:Condens. Matter 29 465901 (2017);
          URL http://www.quantum-espresso.org", 
     in publications or presentations arising from this work. More details at
     http://www.quantum-espresso.org/quote

     Parallel version (MPI & OpenMP), running on      60 processor cores
     Number of MPI processes:                60
     Threads/MPI process:                     1

     MPI processes distributed on     1 nodes
     K-points division:     npool     =      60
     Waiting for input...
     Reading input from standard input

     Reading xml data from directory:

     ./Si.save/

     IMPORTANT: XC functional enforced from input :
     Exchange-correlation= PZ
                           (   1   1   0   0   0   0   0)
     Any further DFT definition will be discarded
     Please, verify this is what you really want

 
     G-vector sticks info
     --------------------
     sticks:   dense  smooth     PW     G-vecs:    dense   smooth      PW
     Sum         571     571    187                 8873     8873    1687
 
     Reading collected, re-writing distributed wavefunctions


     Dynamical matrices for ( 8, 8, 8)  uniform grid of q-points
     (  29 q-points):
       N         xq(1)         xq(2)         xq(3) 
       1   0.000000000   0.000000000   0.000000000
       2  -0.125000000   0.125000000  -0.125000000
       3  -0.250000000   0.250000000  -0.250000000
       4  -0.375000000   0.375000000  -0.375000000
       5   0.500000000  -0.500000000   0.500000000
       6   0.000000000   0.250000000   0.000000000
       7  -0.125000000   0.375000000  -0.125000000
       8  -0.250000000   0.500000000  -0.250000000
       9   0.625000000  -0.375000000   0.625000000
      10   0.500000000  -0.250000000   0.500000000
      11   0.375000000  -0.125000000   0.375000000
      12   0.250000000   0.000000000   0.250000000
      13   0.000000000   0.500000000   0.000000000
      14  -0.125000000   0.625000000  -0.125000000
      15   0.750000000  -0.250000000   0.750000000
      16   0.625000000  -0.125000000   0.625000000
      17   0.500000000   0.000000000   0.500000000
      18   0.000000000   0.750000000   0.000000000
      19   0.875000000  -0.125000000   0.875000000
      20   0.750000000   0.000000000   0.750000000
      21   0.000000000  -1.000000000   0.000000000
      22  -0.250000000   0.500000000   0.000000000
      23   0.625000000  -0.375000000   0.875000000
      24   0.500000000  -0.250000000   0.750000000
      25   0.750000000  -0.250000000   1.000000000
      26   0.625000000  -0.125000000   0.875000000
      27   0.500000000   0.000000000   0.750000000
      28  -0.250000000  -1.000000000   0.000000000
      29  -0.500000000  -1.000000000   0.000000000

     Saving dvscf to file. Distribute only q points, not irreducible represetations.

     Calculation of q =    0.0000000   0.0000000   0.0000000

     phonons for Si                                                             

     bravais-lattice index     =            0
     lattice parameter (alat)  =      10.1645  a.u.
     unit-cell volume          =     262.5448 (a.u.)^3
     number of atoms/cell      =            2
     number of atomic types    =            1
     kinetic-energy cut-off    =      40.0000  Ry
     charge density cut-off    =     160.0000  Ry
     convergence threshold     =      1.0E-15
     beta                      =       0.7000
     number of iterations used =            4
     Exchange-correlation= PZ
                           (   1   1   0   0   0   0   0)


     celldm(1)=   10.16454  celldm(2)=    0.00000  celldm(3)=    0.00000
     celldm(4)=    0.00000  celldm(5)=    0.00000  celldm(6)=    0.00000

     crystal axes: (cart. coord. in units of alat)
               a(1) = ( -0.5000  0.0000  0.5000 )  
               a(2) = (  0.0000  0.5000  0.5000 )  
               a(3) = ( -0.5000  0.5000  0.0000 )  

     reciprocal axes: (cart. coord. in units 2 pi/alat)
               b(1) = ( -1.0000 -1.0000  1.0000 )  
               b(2) = (  1.0000  1.0000  1.0000 )  
               b(3) = ( -1.0000  1.0000 -1.0000 )  


     Atoms inside the unit cell: 

     Cartesian axes

     site n.  atom      mass           positions (alat units)
        1     Si  28.0860   tau(    1) = (    0.12500   -0.12500   -0.12500  )
        2     Si  28.0860   tau(    2) = (   -0.12500    0.12500    0.12500  )

     Computing dynamical matrix for 
                    q = (   0.0000000   0.0000000   0.0000000 )
 
     49 Sym.Ops. (with q -> -q+G )


     G cutoff =  418.7317  (   8873 G-vectors)     FFT grid: ( 30, 30, 30)
     number of k points=    60

     PseudoPot. # 1 for Si read from file:
     ./si.cpi.UPF
     MD5 check sum: b49e38a2651755062821566f72dc82b2
     Pseudo is Norm-conserving, Zval =  4.0
     Generated by new atomic code, or converted to UPF format
     Using radial grid of  495 points,  2 beta functions with: 
                l(1) =   1
                l(2) =   2

     Mode symmetry, O_h (m-3m)  point group:


     Electric field:
     Dielectric constant
     Born effective charges in two ways 


     Atomic displacements:
     There are    2 irreducible representations

     Representation     1      3 modes -  To be done

     Representation     2      3 modes -  To be done



     Alpha used in Ewald sum =   1.7000
     PHONON       :      1.38s CPU     45.79s WALL


     Electric Fields Calculation

      iter #   1 total cpu time :    48.7 secs   av.it.:   8.0
      thresh= 1.000E-02 alpha_mix =  0.700 |ddv_scf|^2 =  2.703E-07

      iter #   2 total cpu time :    51.8 secs   av.it.:  12.0
      thresh= 5.199E-05 alpha_mix =  0.700 |ddv_scf|^2 =  1.015E-08

      iter #   3 total cpu time :    53.2 secs   av.it.:  12.0
      thresh= 1.007E-05 alpha_mix =  0.700 |ddv_scf|^2 =  9.667E-11

      iter #   4 total cpu time :    54.7 secs   av.it.:  12.0
      thresh= 9.832E-07 alpha_mix =  0.700 |ddv_scf|^2 =  4.047E-13

      iter #   5 total cpu time :    56.2 secs   av.it.:  11.0
      thresh= 6.361E-08 alpha_mix =  0.700 |ddv_scf|^2 =  6.300E-16

     End of electric fields calculation

          Dielectric constant in cartesian axis 

          (      13.138616253       0.000000000      -0.000000000 )
          (       0.000000000      13.138616253       0.000000000 )
          (      -0.000000000       0.000000000      13.138616253 )

          Effective charges (d Force / dE) in cartesian axis

           atom      1   Si 
      Ex  (       -0.00044       -0.00000       -0.00000 )
      Ey  (       -0.00000       -0.00044       -0.00000 )
      Ez  (       -0.00000       -0.00000       -0.00044 )
           atom      2   Si 
      Ex  (       -0.00044       -0.00000       -0.00000 )
      Ey  (        0.00000       -0.00044        0.00000 )
      Ez  (        0.00000       -0.00000       -0.00044 )


     Representation #   1 modes #   1   2   3

     Self-consistent Calculation

      iter #   1 total cpu time :    62.5 secs   av.it.:   5.4
      thresh= 1.000E-02 alpha_mix =  0.700 |ddv_scf|^2 =  5.578E-08

      iter #   2 total cpu time :    64.5 secs   av.it.:  10.7
      thresh= 2.362E-05 alpha_mix =  0.700 |ddv_scf|^2 =  9.594E-10

      iter #   3 total cpu time :    66.2 secs   av.it.:  10.7
      thresh= 3.097E-06 alpha_mix =  0.700 |ddv_scf|^2 =  4.800E-12

      iter #   4 total cpu time :    67.9 secs   av.it.:  10.4
      thresh= 2.191E-07 alpha_mix =  0.700 |ddv_scf|^2 =  7.607E-15

      iter #   5 total cpu time :    70.6 secs   av.it.:  10.7
      thresh= 8.722E-09 alpha_mix =  0.700 |ddv_scf|^2 =  4.948E-17

     End of self-consistent calculation

     Convergence has been achieved 


     Representation #   2 modes #   4   5   6

     Self-consistent Calculation

      iter #   1 total cpu time :    73.5 secs   av.it.:   5.3
      thresh= 1.000E-02 alpha_mix =  0.700 |ddv_scf|^2 =  3.942E-08

      iter #   2 total cpu time :    75.1 secs   av.it.:  10.8
      thresh= 1.985E-05 alpha_mix =  0.700 |ddv_scf|^2 =  1.407E-09

      iter #   3 total cpu time :    76.7 secs   av.it.:  10.7
      thresh= 3.751E-06 alpha_mix =  0.700 |ddv_scf|^2 =  7.139E-12

      iter #   4 total cpu time :    78.8 secs   av.it.:  10.6
      thresh= 2.672E-07 alpha_mix =  0.700 |ddv_scf|^2 =  2.126E-14

      iter #   5 total cpu time :    81.6 secs   av.it.:  10.9
      thresh= 1.458E-08 alpha_mix =  0.700 |ddv_scf|^2 =  2.446E-16

     End of self-consistent calculation

     Convergence has been achieved 
 
     Number of q in the star =    1
     List of q in the star:
          1   0.000000000   0.000000000   0.000000000

          Dielectric constant in cartesian axis 

          (      13.138616253       0.000000000      -0.000000000 )
          (       0.000000000      13.138616253       0.000000000 )
          (      -0.000000000       0.000000000      13.138616253 )

          Effective charges (d Force / dE) in cartesian axis

           atom      1   Si 
      Ex  (       -0.00044       -0.00000       -0.00000 )
      Ey  (       -0.00000       -0.00044       -0.00000 )
      Ez  (       -0.00000       -0.00000       -0.00044 )
           atom      2   Si 
      Ex  (       -0.00044       -0.00000       -0.00000 )
      Ey  (        0.00000       -0.00044        0.00000 )
      Ez  (        0.00000       -0.00000       -0.00044 )

          Effective charges (d P / du) in cartesian axis 

           atom      1   Si 
      Px  (       -0.00043        0.00000        0.00000 )
      Py  (       -0.00000       -0.00043       -0.00000 )
      Pz  (        0.00000       -0.00000       -0.00043 )
           atom      2   Si 
      Px  (       -0.00043       -0.00000       -0.00000 )
      Py  (        0.00000       -0.00043        0.00000 )
      Pz  (        0.00000       -0.00000       -0.00043 )

     Diagonalizing the dynamical matrix

     q = (    0.000000000   0.000000000   0.000000000 ) 

 **************************************************************************
     freq (    1) =      -0.053056 [THz] =      -1.769768 [cm-1]
     freq (    2) =      -0.053056 [THz] =      -1.769768 [cm-1]
     freq (    3) =      -0.053056 [THz] =      -1.769768 [cm-1]
     freq (    4) =      15.454302 [THz] =     515.500025 [cm-1]
     freq (    5) =      15.454302 [THz] =     515.500025 [cm-1]
     freq (    6) =      15.454302 [THz] =     515.500025 [cm-1]
 **************************************************************************

     Mode symmetry, O_h (m-3m)  point group:

     freq (   1-   3) =         -1.8  [cm-1]   --> T_1u G_15  G_4- I  
     freq (   4-   6) =        515.5  [cm-1]   --> T_2g G_25' G_5+ R  

     Calculation of q =   -0.1250000   0.1250000  -0.1250000

     Subspace diagonalization in iterative solution of the eigenvalue problem:
     a serial algorithm will be used

 
     G-vector sticks info
     --------------------
     sticks:   dense  smooth     PW     G-vecs:    dense   smooth      PW
     Sum         571     571    199                 8873     8873    1807
 

     Title: 
     phonons for Si                                                             


     bravais-lattice index     =            0
     lattice parameter (alat)  =      10.1645  a.u.
     unit-cell volume          =     262.5448 (a.u.)^3
     number of atoms/cell      =            2
     number of atomic types    =            1
     number of electrons       =         8.00
     number of Kohn-Sham states=           34
     kinetic-energy cutoff     =      40.0000  Ry
     charge density cutoff     =     160.0000  Ry
     Exchange-correlation= PZ
                           (   1   1   0   0   0   0   0)

     celldm(1)=  10.164542  celldm(2)=   0.000000  celldm(3)=   0.000000
     celldm(4)=   0.000000  celldm(5)=   0.000000  celldm(6)=   0.000000

     crystal axes: (cart. coord. in units of alat)
               a(1) = (  -0.500000   0.000000   0.500000 )  
               a(2) = (   0.000000   0.500000   0.500000 )  
               a(3) = (  -0.500000   0.500000   0.000000 )  

     reciprocal axes: (cart. coord. in units 2 pi/alat)
               b(1) = ( -1.000000 -1.000000  1.000000 )  
               b(2) = (  1.000000  1.000000  1.000000 )  
               b(3) = ( -1.000000  1.000000 -1.000000 )  


     PseudoPot. # 1 for Si read from file:
     ./si.cpi.UPF
     MD5 check sum: b49e38a2651755062821566f72dc82b2
     Pseudo is Norm-conserving, Zval =  4.0
     Generated by new atomic code, or converted to UPF format
     Using radial grid of  495 points,  2 beta functions with: 
                l(1) =   1
                l(2) =   2

     atomic species   valence    mass     pseudopotential
        Si             4.00    28.08600     Si( 1.00)

     48 Sym. Ops., with inversion, found



   Cartesian axes

     site n.     atom                  positions (alat units)
         1           Si  tau(   1) = (   0.1250000  -0.1250000  -0.1250000  )
         2           Si  tau(   2) = (  -0.1250000   0.1250000   0.1250000  )

     number of k points=   816

     Number of k-points >= 100: set verbosity='high' to print them.

     Dense  grid:     8873 G-vectors     FFT dimensions: (  30,  30,  30)

     Estimated max dynamical RAM per process >       9.55 MB

     Estimated total dynamical RAM >     573.07 MB

     The potential is recalculated from file :
     ./_ph0/Si.q_2/Si.save/charge-density

     Starting wfcs are   18 atomic +   16 random wfcs

     Band Structure Calculation
     Davidson diagonalization with overlap

     ethr =  1.25E-10,  avg # of iterations = 14.7

     total cpu time spent up to now is       18.9 secs

     End of band structure calculation

     Number of k-points >= 100: set verbosity='high' to print the bands.

     highest occupied, lowest unoccupied level (ev):     6.2053    6.9068

     Writing output data file ./_ph0/Si.q_2/Si.save/

     phonons for Si                                                             

     bravais-lattice index     =            0
     lattice parameter (alat)  =      10.1645  a.u.
     unit-cell volume          =     262.5448 (a.u.)^3
     number of atoms/cell      =            2
     number of atomic types    =            1
     kinetic-energy cut-off    =      40.0000  Ry
     charge density cut-off    =     160.0000  Ry
     convergence threshold     =      1.0E-15
     beta                      =       0.7000
     number of iterations used =            4
     Exchange-correlation= PZ
                           (   1   1   0   0   0   0   0)


     celldm(1)=   10.16454  celldm(2)=    0.00000  celldm(3)=    0.00000
     celldm(4)=    0.00000  celldm(5)=    0.00000  celldm(6)=    0.00000

     crystal axes: (cart. coord. in units of alat)
               a(1) = ( -0.5000  0.0000  0.5000 )  
               a(2) = (  0.0000  0.5000  0.5000 )  
               a(3) = ( -0.5000  0.5000  0.0000 )  

     reciprocal axes: (cart. coord. in units 2 pi/alat)
               b(1) = ( -1.0000 -1.0000  1.0000 )  
               b(2) = (  1.0000  1.0000  1.0000 )  
               b(3) = ( -1.0000  1.0000 -1.0000 )  


     Atoms inside the unit cell: 

     Cartesian axes

     site n.  atom      mass           positions (alat units)
        1     Si  28.0860   tau(    1) = (    0.12500   -0.12500   -0.12500  )
        2     Si  28.0860   tau(    2) = (   -0.12500    0.12500    0.12500  )

     Computing dynamical matrix for 
                    q = (  -0.1250000   0.1250000  -0.1250000 )
 
      6 Sym.Ops. (no q -> -q+G )


     G cutoff =  418.7317  (   8873 G-vectors)     FFT grid: ( 30, 30, 30)
     number of k points=   816

     PseudoPot. # 1 for Si read from file:
     ./si.cpi.UPF
     MD5 check sum: b49e38a2651755062821566f72dc82b2
     Pseudo is Norm-conserving, Zval =  4.0
     Generated by new atomic code, or converted to UPF format
     Using radial grid of  495 points,  2 beta functions with: 
                l(1) =   1
                l(2) =   2

     Mode symmetry, C_3v (3m)   point group:


     Atomic displacements:
     There are    4 irreducible representations

     Representation     1      1 modes -  To be done

     Representation     2      1 modes -  To be done

     Representation     3      2 modes -  To be done

     Representation     4      2 modes -  To be done



     Alpha used in Ewald sum =   1.7000
     PHONON       :     38.25s CPU   2m 2.76s WALL



     Representation #   1 mode #   1

     Self-consistent Calculation

      iter #   1 total cpu time :   125.5 secs   av.it.:   6.2
      thresh= 1.000E-02 alpha_mix =  0.700 |ddv_scf|^2 =  8.989E-03

      iter #   2 total cpu time :   130.3 secs   av.it.:   7.6
      thresh= 9.481E-03 alpha_mix =  0.700 |ddv_scf|^2 =  4.043E-01

      iter #   3 total cpu time :   132.0 secs   av.it.:   7.4
      thresh= 1.000E-02 alpha_mix =  0.700 |ddv_scf|^2 =  1.628E-06

      iter #   4 total cpu time :   133.6 secs   av.it.:   7.7
      thresh= 1.276E-04 alpha_mix =  0.700 |ddv_scf|^2 =  1.119E-07

      iter #   5 total cpu time :   135.5 secs   av.it.:   7.4
      thresh= 3.345E-05 alpha_mix =  0.700 |ddv_scf|^2 =  1.911E-08

      iter #   6 total cpu time :   137.1 secs   av.it.:   5.8
      thresh= 1.383E-05 alpha_mix =  0.700 |ddv_scf|^2 =  1.914E-10

      iter #   7 total cpu time :   139.0 secs   av.it.:   8.2
      thresh= 1.384E-06 alpha_mix =  0.700 |ddv_scf|^2 =  5.542E-11

      iter #   8 total cpu time :   140.6 secs   av.it.:   7.1
      thresh= 7.445E-07 alpha_mix =  0.700 |ddv_scf|^2 =  6.761E-12

      iter #   9 total cpu time :   142.2 secs   av.it.:   6.5
      thresh= 2.600E-07 alpha_mix =  0.700 |ddv_scf|^2 =  1.522E-14

      iter #  10 total cpu time :   144.0 secs   av.it.:   6.4
      thresh= 1.234E-08 alpha_mix =  0.700 |ddv_scf|^2 =  3.682E-15

      iter #  11 total cpu time :   147.7 secs   av.it.:   6.5
      thresh= 6.068E-09 alpha_mix =  0.700 |ddv_scf|^2 =  2.277E-17

     End of self-consistent calculation

     Convergence has been achieved 


     Representation #   2 mode #   2

     Self-consistent Calculation

      iter #   1 total cpu time :   150.9 secs   av.it.:   6.2
      thresh= 1.000E-02 alpha_mix =  0.700 |ddv_scf|^2 =  8.989E-03

      iter #   2 total cpu time :   153.5 secs   av.it.:   7.6
      thresh= 9.481E-03 alpha_mix =  0.700 |ddv_scf|^2 =  4.043E-01

      iter #   3 total cpu time :   155.4 secs   av.it.:   7.4
      thresh= 1.000E-02 alpha_mix =  0.700 |ddv_scf|^2 =  1.628E-06

      iter #   4 total cpu time :   157.1 secs   av.it.:   7.7
      thresh= 1.276E-04 alpha_mix =  0.700 |ddv_scf|^2 =  1.119E-07

      iter #   5 total cpu time :   158.8 secs   av.it.:   7.4
      thresh= 3.345E-05 alpha_mix =  0.700 |ddv_scf|^2 =  1.911E-08

      iter #   6 total cpu time :   160.2 secs   av.it.:   5.8
      thresh= 1.383E-05 alpha_mix =  0.700 |ddv_scf|^2 =  1.914E-10

      iter #   7 total cpu time :   161.8 secs   av.it.:   8.2
      thresh= 1.384E-06 alpha_mix =  0.700 |ddv_scf|^2 =  5.543E-11

      iter #   8 total cpu time :   163.4 secs   av.it.:   7.1
      thresh= 7.445E-07 alpha_mix =  0.700 |ddv_scf|^2 =  6.762E-12

      iter #   9 total cpu time :   165.1 secs   av.it.:   6.5
      thresh= 2.600E-07 alpha_mix =  0.700 |ddv_scf|^2 =  1.523E-14

      iter #  10 total cpu time :   166.8 secs   av.it.:   6.4
      thresh= 1.234E-08 alpha_mix =  0.700 |ddv_scf|^2 =  3.680E-15

      iter #  11 total cpu time :   170.5 secs   av.it.:   6.5
      thresh= 6.067E-09 alpha_mix =  0.700 |ddv_scf|^2 =  2.272E-17

     End of self-consistent calculation

     Convergence has been achieved 


     Representation #   3 modes #   3   4

     Self-consistent Calculation

      iter #   1 total cpu time :   176.9 secs   av.it.:   5.6
      thresh= 1.000E-02 alpha_mix =  0.700 |ddv_scf|^2 =  1.211E-07

      iter #   2 total cpu time :   180.0 secs   av.it.:  10.5
      thresh= 3.480E-05 alpha_mix =  0.700 |ddv_scf|^2 =  4.229E-09

      iter #   3 total cpu time :   183.0 secs   av.it.:  10.3
      thresh= 6.503E-06 alpha_mix =  0.700 |ddv_scf|^2 =  1.927E-11

      iter #   4 total cpu time :   185.9 secs   av.it.:  10.2
      thresh= 4.390E-07 alpha_mix =  0.700 |ddv_scf|^2 =  1.357E-12

      iter #   5 total cpu time :   189.4 secs   av.it.:  10.2
      thresh= 1.165E-07 alpha_mix =  0.700 |ddv_scf|^2 =  3.319E-15

      iter #   6 total cpu time :   196.2 secs   av.it.:  10.5
      thresh= 5.761E-09 alpha_mix =  0.700 |ddv_scf|^2 =  3.384E-17

     End of self-consistent calculation

     Convergence has been achieved 


     Representation #   4 modes #   5   6

     Self-consistent Calculation

      iter #   1 total cpu time :   201.5 secs   av.it.:   5.6
      thresh= 1.000E-02 alpha_mix =  0.700 |ddv_scf|^2 =  1.211E-07

      iter #   2 total cpu time :   205.1 secs   av.it.:  10.4
      thresh= 3.480E-05 alpha_mix =  0.700 |ddv_scf|^2 =  4.231E-09

      iter #   3 total cpu time :   208.2 secs   av.it.:  10.2
      thresh= 6.505E-06 alpha_mix =  0.700 |ddv_scf|^2 =  1.926E-11

      iter #   4 total cpu time :   211.5 secs   av.it.:  10.1
      thresh= 4.389E-07 alpha_mix =  0.700 |ddv_scf|^2 =  1.357E-12

      iter #   5 total cpu time :   214.5 secs   av.it.:  10.1
      thresh= 1.165E-07 alpha_mix =  0.700 |ddv_scf|^2 =  3.312E-15

      iter #   6 total cpu time :   218.7 secs   av.it.:  10.4
      thresh= 5.755E-09 alpha_mix =  0.700 |ddv_scf|^2 =  3.403E-17

     End of self-consistent calculation

     Convergence has been achieved 
 
     Number of q in the star =    8
     List of q in the star:
          1  -0.125000000   0.125000000  -0.125000000
          2   0.125000000  -0.125000000  -0.125000000
          3   0.125000000  -0.125000000   0.125000000
          4  -0.125000000   0.125000000   0.125000000
          5   0.125000000   0.125000000  -0.125000000
          6  -0.125000000  -0.125000000  -0.125000000
          7  -0.125000000  -0.125000000   0.125000000
          8   0.125000000   0.125000000   0.125000000

     Diagonalizing the dynamical matrix

     q = (   -0.125000000   0.125000000  -0.125000000 ) 

 **************************************************************************
     freq (    1) =       1.791502 [THz] =      59.758078 [cm-1]
     freq (    2) =       1.791502 [THz] =      59.758078 [cm-1]
     freq (    3) =       3.615970 [THz] =     120.615763 [cm-1]
     freq (    4) =      15.221098 [THz] =     507.721177 [cm-1]
     freq (    5) =      15.221098 [THz] =     507.721177 [cm-1]
     freq (    6) =      15.235559 [THz] =     508.203533 [cm-1]
 **************************************************************************

     Mode symmetry, C_3v (3m)   point group:

     freq (   1-   2) =         59.8  [cm-1]   --> E    L_3           
     freq (   3-   3) =        120.6  [cm-1]   --> A_1  L_1           
     freq (   4-   5) =        507.7  [cm-1]   --> E    L_3           
     freq (   6-   6) =        508.2  [cm-1]   --> A_1  L_1           

     Calculation of q =   -0.2500000   0.2500000  -0.2500000
 
     G-vector sticks info
     --------------------
     sticks:   dense  smooth     PW     G-vecs:    dense   smooth      PW
     Sum         571     571    199                 8873     8873    1837
 

     Title: 
     phonons for Si                                                             


     bravais-lattice index     =            0
     lattice parameter (alat)  =      10.1645  a.u.
     unit-cell volume          =     262.5448 (a.u.)^3
     number of atoms/cell      =            2
     number of atomic types    =            1
     number of electrons       =         8.00
     number of Kohn-Sham states=           34
     kinetic-energy cutoff     =      40.0000  Ry
     charge density cutoff     =     160.0000  Ry
     Exchange-correlation= PZ
                           (   1   1   0   0   0   0   0)

     celldm(1)=  10.164542  celldm(2)=   0.000000  celldm(3)=   0.000000
     celldm(4)=   0.000000  celldm(5)=   0.000000  celldm(6)=   0.000000

     crystal axes: (cart. coord. in units of alat)
               a(1) = (  -0.500000   0.000000   0.500000 )  
               a(2) = (   0.000000   0.500000   0.500000 )  
               a(3) = (  -0.500000   0.500000   0.000000 )  

     reciprocal axes: (cart. coord. in units 2 pi/alat)
               b(1) = ( -1.000000 -1.000000  1.000000 )  
               b(2) = (  1.000000  1.000000  1.000000 )  
               b(3) = ( -1.000000  1.000000 -1.000000 )  


     PseudoPot. # 1 for Si read from file:
     ./si.cpi.UPF
     MD5 check sum: b49e38a2651755062821566f72dc82b2
     Pseudo is Norm-conserving, Zval =  4.0
     Generated by new atomic code, or converted to UPF format
     Using radial grid of  495 points,  2 beta functions with: 
                l(1) =   1
                l(2) =   2

     atomic species   valence    mass     pseudopotential
        Si             4.00    28.08600     Si( 1.00)

     48 Sym. Ops., with inversion, found



   Cartesian axes

     site n.     atom                  positions (alat units)
         1           Si  tau(   1) = (   0.1250000  -0.1250000  -0.1250000  )
         2           Si  tau(   2) = (  -0.1250000   0.1250000   0.1250000  )

     number of k points=   816

     Number of k-points >= 100: set verbosity='high' to print them.

     Dense  grid:     8873 G-vectors     FFT dimensions: (  30,  30,  30)

     Estimated max dynamical RAM per process >       9.55 MB

     Estimated total dynamical RAM >     573.16 MB

     The potential is recalculated from file :
     ./_ph0/Si.q_3/Si.save/charge-density

     Starting wfcs are   18 atomic +   16 random wfcs

     Band Structure Calculation
     Davidson diagonalization with overlap

     ethr =  1.25E-10,  avg # of iterations = 14.7

     total cpu time spent up to now is       44.5 secs

     End of band structure calculation

     Number of k-points >= 100: set verbosity='high' to print the bands.

     highest occupied, lowest unoccupied level (ev):     6.2053    6.9068

     Writing output data file ./_ph0/Si.q_3/Si.save/

     phonons for Si                                                             

     bravais-lattice index     =            0
     lattice parameter (alat)  =      10.1645  a.u.
     unit-cell volume          =     262.5448 (a.u.)^3
     number of atoms/cell      =            2
     number of atomic types    =            1
     kinetic-energy cut-off    =      40.0000  Ry
     charge density cut-off    =     160.0000  Ry
     convergence threshold     =      1.0E-15
     beta                      =       0.7000
     number of iterations used =            4
     Exchange-correlation= PZ
                           (   1   1   0   0   0   0   0)


     celldm(1)=   10.16454  celldm(2)=    0.00000  celldm(3)=    0.00000
     celldm(4)=    0.00000  celldm(5)=    0.00000  celldm(6)=    0.00000

     crystal axes: (cart. coord. in units of alat)
               a(1) = ( -0.5000  0.0000  0.5000 )  
               a(2) = (  0.0000  0.5000  0.5000 )  
               a(3) = ( -0.5000  0.5000  0.0000 )  

     reciprocal axes: (cart. coord. in units 2 pi/alat)
               b(1) = ( -1.0000 -1.0000  1.0000 )  
               b(2) = (  1.0000  1.0000  1.0000 )  
               b(3) = ( -1.0000  1.0000 -1.0000 )  


     Atoms inside the unit cell: 

     Cartesian axes

     site n.  atom      mass           positions (alat units)
        1     Si  28.0860   tau(    1) = (    0.12500   -0.12500   -0.12500  )
        2     Si  28.0860   tau(    2) = (   -0.12500    0.12500    0.12500  )

     Computing dynamical matrix for 
                    q = (  -0.2500000   0.2500000  -0.2500000 )
 
      6 Sym.Ops. (no q -> -q+G )


     G cutoff =  418.7317  (   8873 G-vectors)     FFT grid: ( 30, 30, 30)
     number of k points=   816

     PseudoPot. # 1 for Si read from file:
     ./si.cpi.UPF
     MD5 check sum: b49e38a2651755062821566f72dc82b2
     Pseudo is Norm-conserving, Zval =  4.0
     Generated by new atomic code, or converted to UPF format
     Using radial grid of  495 points,  2 beta functions with: 
                l(1) =   1
                l(2) =   2

     Mode symmetry, C_3v (3m)   point group:


     Atomic displacements:
     There are    4 irreducible representations

     Representation     1      1 modes -  To be done

     Representation     2      1 modes -  To be done

     Representation     3      2 modes -  To be done

     Representation     4      2 modes -  To be done



     Alpha used in Ewald sum =   1.7000
     PHONON       :   1m56.42s CPU   4m16.69s WALL



     Representation #   1 mode #   1

     Self-consistent Calculation

      iter #   1 total cpu time :   259.7 secs   av.it.:   6.2
      thresh= 1.000E-02 alpha_mix =  0.700 |ddv_scf|^2 =  8.112E-04

      iter #   2 total cpu time :   262.4 secs   av.it.:   8.4
      thresh= 2.848E-03 alpha_mix =  0.700 |ddv_scf|^2 =  1.279E-02

      iter #   3 total cpu time :   264.6 secs   av.it.:   6.8
      thresh= 1.000E-02 alpha_mix =  0.700 |ddv_scf|^2 =  5.338E-07

      iter #   4 total cpu time :   266.2 secs   av.it.:   8.8
      thresh= 7.306E-05 alpha_mix =  0.700 |ddv_scf|^2 =  4.833E-08

      iter #   5 total cpu time :   267.9 secs   av.it.:   8.5
      thresh= 2.198E-05 alpha_mix =  0.700 |ddv_scf|^2 =  9.651E-11

      iter #   6 total cpu time :   271.6 secs   av.it.:   8.9
      thresh= 9.824E-07 alpha_mix =  0.700 |ddv_scf|^2 =  9.585E-11

      iter #   7 total cpu time :   273.1 secs   av.it.:   7.4
      thresh= 9.790E-07 alpha_mix =  0.700 |ddv_scf|^2 =  1.574E-11

      iter #   8 total cpu time :   274.5 secs   av.it.:   8.0
      thresh= 3.967E-07 alpha_mix =  0.700 |ddv_scf|^2 =  5.474E-14

      iter #   9 total cpu time :   275.9 secs   av.it.:   8.2
      thresh= 2.340E-08 alpha_mix =  0.700 |ddv_scf|^2 =  1.292E-15

      iter #  10 total cpu time :   278.9 secs   av.it.:   8.7
      thresh= 3.595E-09 alpha_mix =  0.700 |ddv_scf|^2 =  3.899E-16

     End of self-consistent calculation

     Convergence has been achieved 


     Representation #   2 mode #   2

     Self-consistent Calculation

      iter #   1 total cpu time :   282.5 secs   av.it.:   6.2
      thresh= 1.000E-02 alpha_mix =  0.700 |ddv_scf|^2 =  8.112E-04

      iter #   2 total cpu time :   284.0 secs   av.it.:   8.4
      thresh= 2.848E-03 alpha_mix =  0.700 |ddv_scf|^2 =  1.279E-02

      iter #   3 total cpu time :   285.4 secs   av.it.:   6.8
      thresh= 1.000E-02 alpha_mix =  0.700 |ddv_scf|^2 =  5.338E-07

      iter #   4 total cpu time :   286.8 secs   av.it.:   8.8
      thresh= 7.306E-05 alpha_mix =  0.700 |ddv_scf|^2 =  4.833E-08

      iter #   5 total cpu time :   288.0 secs   av.it.:   8.5
      thresh= 2.198E-05 alpha_mix =  0.700 |ddv_scf|^2 =  9.651E-11

      iter #   6 total cpu time :   289.4 secs   av.it.:   8.9
      thresh= 9.824E-07 alpha_mix =  0.700 |ddv_scf|^2 =  9.585E-11

      iter #   7 total cpu time :   290.7 secs   av.it.:   7.4
      thresh= 9.790E-07 alpha_mix =  0.700 |ddv_scf|^2 =  1.574E-11

      iter #   8 total cpu time :   292.3 secs   av.it.:   8.0
      thresh= 3.967E-07 alpha_mix =  0.700 |ddv_scf|^2 =  5.474E-14

      iter #   9 total cpu time :   294.4 secs   av.it.:   8.2
      thresh= 2.340E-08 alpha_mix =  0.700 |ddv_scf|^2 =  1.292E-15

      iter #  10 total cpu time :   300.2 secs   av.it.:   8.7
      thresh= 3.594E-09 alpha_mix =  0.700 |ddv_scf|^2 =  3.898E-16

     End of self-consistent calculation

     Convergence has been achieved 


     Representation #   3 modes #   3   4

     Self-consistent Calculation

      iter #   1 total cpu time :   306.9 secs   av.it.:   5.6
      thresh= 1.000E-02 alpha_mix =  0.700 |ddv_scf|^2 =  1.514E-07

      iter #   2 total cpu time :   309.8 secs   av.it.:  10.5
      thresh= 3.892E-05 alpha_mix =  0.700 |ddv_scf|^2 =  8.374E-09

      iter #   3 total cpu time :   313.2 secs   av.it.:  10.2
      thresh= 9.151E-06 alpha_mix =  0.700 |ddv_scf|^2 =  2.233E-11

      iter #   4 total cpu time :   316.5 secs   av.it.:  10.2
      thresh= 4.725E-07 alpha_mix =  0.700 |ddv_scf|^2 =  1.592E-12

      iter #   5 total cpu time :   320.0 secs   av.it.:  10.1
      thresh= 1.262E-07 alpha_mix =  0.700 |ddv_scf|^2 =  4.258E-15

      iter #   6 total cpu time :   325.4 secs   av.it.:  10.4
      thresh= 6.525E-09 alpha_mix =  0.700 |ddv_scf|^2 =  6.883E-17

     End of self-consistent calculation

     Convergence has been achieved 


     Representation #   4 modes #   5   6

     Self-consistent Calculation

      iter #   1 total cpu time :   331.2 secs   av.it.:   5.6
      thresh= 1.000E-02 alpha_mix =  0.700 |ddv_scf|^2 =  1.515E-07

      iter #   2 total cpu time :   334.5 secs   av.it.:  10.4
      thresh= 3.892E-05 alpha_mix =  0.700 |ddv_scf|^2 =  8.386E-09

      iter #   3 total cpu time :   338.6 secs   av.it.:  10.1
      thresh= 9.157E-06 alpha_mix =  0.700 |ddv_scf|^2 =  2.228E-11

      iter #   4 total cpu time :   341.6 secs   av.it.:  10.1
      thresh= 4.721E-07 alpha_mix =  0.700 |ddv_scf|^2 =  1.591E-12

      iter #   5 total cpu time :   344.9 secs   av.it.:  10.0
      thresh= 1.261E-07 alpha_mix =  0.700 |ddv_scf|^2 =  4.246E-15

      iter #   6 total cpu time :   349.1 secs   av.it.:  10.3
      thresh= 6.516E-09 alpha_mix =  0.700 |ddv_scf|^2 =  6.827E-17

     End of self-consistent calculation

     Convergence has been achieved 
 
     Number of q in the star =    8
     List of q in the star:
          1  -0.250000000   0.250000000  -0.250000000
          2   0.250000000  -0.250000000  -0.250000000
          3   0.250000000  -0.250000000   0.250000000
          4  -0.250000000   0.250000000   0.250000000
          5   0.250000000   0.250000000  -0.250000000
          6  -0.250000000  -0.250000000  -0.250000000
          7  -0.250000000  -0.250000000   0.250000000
          8   0.250000000   0.250000000   0.250000000

     Diagonalizing the dynamical matrix

     q = (   -0.250000000   0.250000000  -0.250000000 ) 

 **************************************************************************
     freq (    1) =       2.796748 [THz] =      93.289465 [cm-1]
     freq (    2) =       2.796748 [THz] =      93.289465 [cm-1]
     freq (    3) =       6.898968 [THz] =     230.124788 [cm-1]
     freq (    4) =      14.569502 [THz] =     485.986262 [cm-1]
     freq (    5) =      14.904841 [THz] =     497.171973 [cm-1]
     freq (    6) =      14.904841 [THz] =     497.171973 [cm-1]
 **************************************************************************

     Mode symmetry, C_3v (3m)   point group:

     freq (   1-   2) =         93.3  [cm-1]   --> E    L_3           
     freq (   3-   3) =        230.1  [cm-1]   --> A_1  L_1           
     freq (   4-   4) =        486.0  [cm-1]   --> A_1  L_1           
     freq (   5-   6) =        497.2  [cm-1]   --> E    L_3           

     Calculation of q =   -0.3750000   0.3750000  -0.3750000
 
     G-vector sticks info
     --------------------
     sticks:   dense  smooth     PW     G-vecs:    dense   smooth      PW
     Sum         571     571    199                 8873     8873    1917
 

     Title: 
     phonons for Si                                                             


     bravais-lattice index     =            0
     lattice parameter (alat)  =      10.1645  a.u.
     unit-cell volume          =     262.5448 (a.u.)^3
     number of atoms/cell      =            2
     number of atomic types    =            1
     number of electrons       =         8.00
     number of Kohn-Sham states=           34
     kinetic-energy cutoff     =      40.0000  Ry
     charge density cutoff     =     160.0000  Ry
     Exchange-correlation= PZ
                           (   1   1   0   0   0   0   0)

     celldm(1)=  10.164542  celldm(2)=   0.000000  celldm(3)=   0.000000
     celldm(4)=   0.000000  celldm(5)=   0.000000  celldm(6)=   0.000000

     crystal axes: (cart. coord. in units of alat)
               a(1) = (  -0.500000   0.000000   0.500000 )  
               a(2) = (   0.000000   0.500000   0.500000 )  
               a(3) = (  -0.500000   0.500000   0.000000 )  

     reciprocal axes: (cart. coord. in units 2 pi/alat)
               b(1) = ( -1.000000 -1.000000  1.000000 )  
               b(2) = (  1.000000  1.000000  1.000000 )  
               b(3) = ( -1.000000  1.000000 -1.000000 )  


     PseudoPot. # 1 for Si read from file:
     ./si.cpi.UPF
     MD5 check sum: b49e38a2651755062821566f72dc82b2
     Pseudo is Norm-conserving, Zval =  4.0
     Generated by new atomic code, or converted to UPF format
     Using radial grid of  495 points,  2 beta functions with: 
                l(1) =   1
                l(2) =   2

     atomic species   valence    mass     pseudopotential
        Si             4.00    28.08600     Si( 1.00)

     48 Sym. Ops., with inversion, found



   Cartesian axes

     site n.     atom                  positions (alat units)
         1           Si  tau(   1) = (   0.1250000  -0.1250000  -0.1250000  )
         2           Si  tau(   2) = (  -0.1250000   0.1250000   0.1250000  )

     number of k points=   816

     Number of k-points >= 100: set verbosity='high' to print them.

     Dense  grid:     8873 G-vectors     FFT dimensions: (  30,  30,  30)

     Estimated max dynamical RAM per process >       9.55 MB

     Estimated total dynamical RAM >     573.26 MB

     The potential is recalculated from file :
     ./_ph0/Si.q_4/Si.save/charge-density

     Starting wfcs are   18 atomic +   16 random wfcs

     Band Structure Calculation
     Davidson diagonalization with overlap

     ethr =  1.25E-10,  avg # of iterations = 14.7

     total cpu time spent up to now is       73.4 secs

     End of band structure calculation

     Number of k-points >= 100: set verbosity='high' to print the bands.

     highest occupied, lowest unoccupied level (ev):     6.2053    6.9068

     Writing output data file ./_ph0/Si.q_4/Si.save/

     phonons for Si                                                             

     bravais-lattice index     =            0
     lattice parameter (alat)  =      10.1645  a.u.
     unit-cell volume          =     262.5448 (a.u.)^3
     number of atoms/cell      =            2
     number of atomic types    =            1
     kinetic-energy cut-off    =      40.0000  Ry
     charge density cut-off    =     160.0000  Ry
     convergence threshold     =      1.0E-15
     beta                      =       0.7000
     number of iterations used =            4
     Exchange-correlation= PZ
                           (   1   1   0   0   0   0   0)


     celldm(1)=   10.16454  celldm(2)=    0.00000  celldm(3)=    0.00000
     celldm(4)=    0.00000  celldm(5)=    0.00000  celldm(6)=    0.00000

     crystal axes: (cart. coord. in units of alat)
               a(1) = ( -0.5000  0.0000  0.5000 )  
               a(2) = (  0.0000  0.5000  0.5000 )  
               a(3) = ( -0.5000  0.5000  0.0000 )  

     reciprocal axes: (cart. coord. in units 2 pi/alat)
               b(1) = ( -1.0000 -1.0000  1.0000 )  
               b(2) = (  1.0000  1.0000  1.0000 )  
               b(3) = ( -1.0000  1.0000 -1.0000 )  


     Atoms inside the unit cell: 

     Cartesian axes

     site n.  atom      mass           positions (alat units)
        1     Si  28.0860   tau(    1) = (    0.12500   -0.12500   -0.12500  )
        2     Si  28.0860   tau(    2) = (   -0.12500    0.12500    0.12500  )

     Computing dynamical matrix for 
                    q = (  -0.3750000   0.3750000  -0.3750000 )
 
      6 Sym.Ops. (no q -> -q+G )


     G cutoff =  418.7317  (   8873 G-vectors)     FFT grid: ( 30, 30, 30)
     number of k points=   816

     PseudoPot. # 1 for Si read from file:
     ./si.cpi.UPF
     MD5 check sum: b49e38a2651755062821566f72dc82b2
     Pseudo is Norm-conserving, Zval =  4.0
     Generated by new atomic code, or converted to UPF format
     Using radial grid of  495 points,  2 beta functions with: 
                l(1) =   1
                l(2) =   2

     Mode symmetry, C_3v (3m)   point group:


     Atomic displacements:
     There are    4 irreducible representations

     Representation     1      1 modes -  To be done

     Representation     2      1 modes -  To be done

     Representation     3      2 modes -  To be done

     Representation     4      2 modes -  To be done



     Alpha used in Ewald sum =   1.7000
     PHONON       :   3m13.77s CPU   6m28.83s WALL



     Representation #   1 mode #   1

     Self-consistent Calculation

      iter #   1 total cpu time :   391.1 secs   av.it.:   6.1
      thresh= 1.000E-02 alpha_mix =  0.700 |ddv_scf|^2 =  1.418E-04

      iter #   2 total cpu time :   396.8 secs   av.it.:   8.9
      thresh= 1.191E-03 alpha_mix =  0.700 |ddv_scf|^2 =  8.137E-04

      iter #   3 total cpu time :   399.2 secs   av.it.:   7.6
      thresh= 2.853E-03 alpha_mix =  0.700 |ddv_scf|^2 =  3.871E-07

      iter #   4 total cpu time :   401.1 secs   av.it.:   8.8
      thresh= 6.222E-05 alpha_mix =  0.700 |ddv_scf|^2 =  2.580E-09

      iter #   5 total cpu time :   404.4 secs   av.it.:   8.9
      thresh= 5.079E-06 alpha_mix =  0.700 |ddv_scf|^2 =  3.069E-11

      iter #   6 total cpu time :   406.1 secs   av.it.:   9.3
      thresh= 5.539E-07 alpha_mix =  0.700 |ddv_scf|^2 =  3.265E-12

      iter #   7 total cpu time :   407.8 secs   av.it.:   9.0
      thresh= 1.807E-07 alpha_mix =  0.700 |ddv_scf|^2 =  1.429E-12

      iter #   8 total cpu time :   409.7 secs   av.it.:   7.8
      thresh= 1.196E-07 alpha_mix =  0.700 |ddv_scf|^2 =  6.304E-14

      iter #   9 total cpu time :   411.6 secs   av.it.:   8.6
      thresh= 2.511E-08 alpha_mix =  0.700 |ddv_scf|^2 =  4.479E-14

      iter #  10 total cpu time :   414.3 secs   av.it.:   8.2
      thresh= 2.116E-08 alpha_mix =  0.700 |ddv_scf|^2 =  1.141E-16

     End of self-consistent calculation

     Convergence has been achieved 


     Representation #   2 mode #   2

     Self-consistent Calculation

      iter #   1 total cpu time :   418.9 secs   av.it.:   6.1
      thresh= 1.000E-02 alpha_mix =  0.700 |ddv_scf|^2 =  1.418E-04

      iter #   2 total cpu time :   421.2 secs   av.it.:   8.9
      thresh= 1.191E-03 alpha_mix =  0.700 |ddv_scf|^2 =  8.137E-04

      iter #   3 total cpu time :   422.7 secs   av.it.:   7.6
      thresh= 2.853E-03 alpha_mix =  0.700 |ddv_scf|^2 =  3.871E-07

      iter #   4 total cpu time :   424.4 secs   av.it.:   8.8
      thresh= 6.222E-05 alpha_mix =  0.700 |ddv_scf|^2 =  2.580E-09

      iter #   5 total cpu time :   429.3 secs   av.it.:   8.9
      thresh= 5.079E-06 alpha_mix =  0.700 |ddv_scf|^2 =  3.069E-11

      iter #   6 total cpu time :   431.1 secs   av.it.:   9.3
      thresh= 5.539E-07 alpha_mix =  0.700 |ddv_scf|^2 =  3.265E-12

      iter #   7 total cpu time :   432.9 secs   av.it.:   9.0
      thresh= 1.807E-07 alpha_mix =  0.700 |ddv_scf|^2 =  1.431E-12

      iter #   8 total cpu time :   434.6 secs   av.it.:   7.8
      thresh= 1.196E-07 alpha_mix =  0.700 |ddv_scf|^2 =  6.304E-14

      iter #   9 total cpu time :   436.5 secs   av.it.:   8.6
      thresh= 2.511E-08 alpha_mix =  0.700 |ddv_scf|^2 =  4.479E-14

      iter #  10 total cpu time :   439.5 secs   av.it.:   8.2
      thresh= 2.116E-08 alpha_mix =  0.700 |ddv_scf|^2 =  1.141E-16

     End of self-consistent calculation

     Convergence has been achieved 


     Representation #   3 modes #   3   4

     Self-consistent Calculation

      iter #   1 total cpu time :   445.1 secs   av.it.:   5.6
      thresh= 1.000E-02 alpha_mix =  0.700 |ddv_scf|^2 =  1.787E-07

      iter #   2 total cpu time :   448.6 secs   av.it.:  10.4
      thresh= 4.227E-05 alpha_mix =  0.700 |ddv_scf|^2 =  1.271E-08

      iter #   3 total cpu time :   452.4 secs   av.it.:  10.2
      thresh= 1.127E-05 alpha_mix =  0.700 |ddv_scf|^2 =  2.360E-11

      iter #   4 total cpu time :   455.4 secs   av.it.:  10.2
      thresh= 4.858E-07 alpha_mix =  0.700 |ddv_scf|^2 =  1.708E-12

      iter #   5 total cpu time :   458.4 secs   av.it.:  10.1
      thresh= 1.307E-07 alpha_mix =  0.700 |ddv_scf|^2 =  4.856E-15

      iter #   6 total cpu time :   462.4 secs   av.it.:  10.3
      thresh= 6.968E-09 alpha_mix =  0.700 |ddv_scf|^2 =  6.635E-17

     End of self-consistent calculation

     Convergence has been achieved 


     Representation #   4 modes #   5   6

     Self-consistent Calculation

      iter #   1 total cpu time :   467.0 secs   av.it.:   5.6
      thresh= 1.000E-02 alpha_mix =  0.700 |ddv_scf|^2 =  1.787E-07

      iter #   2 total cpu time :   469.9 secs   av.it.:  10.3
      thresh= 4.227E-05 alpha_mix =  0.700 |ddv_scf|^2 =  1.272E-08

      iter #   3 total cpu time :   474.4 secs   av.it.:  10.1
      thresh= 1.128E-05 alpha_mix =  0.700 |ddv_scf|^2 =  2.353E-11

      iter #   4 total cpu time :   477.0 secs   av.it.:  10.1
      thresh= 4.851E-07 alpha_mix =  0.700 |ddv_scf|^2 =  1.705E-12

      iter #   5 total cpu time :   479.9 secs   av.it.:  10.0
      thresh= 1.306E-07 alpha_mix =  0.700 |ddv_scf|^2 =  4.865E-15

      iter #   6 total cpu time :   484.8 secs   av.it.:  10.3
      thresh= 6.975E-09 alpha_mix =  0.700 |ddv_scf|^2 =  6.544E-17

     End of self-consistent calculation

     Convergence has been achieved 
 
     Number of q in the star =    8
     List of q in the star:
          1  -0.375000000   0.375000000  -0.375000000
          2   0.375000000  -0.375000000  -0.375000000
          3   0.375000000  -0.375000000   0.375000000
          4  -0.375000000   0.375000000   0.375000000
          5   0.375000000   0.375000000  -0.375000000
          6  -0.375000000  -0.375000000  -0.375000000
          7  -0.375000000  -0.375000000   0.375000000
          8   0.375000000   0.375000000   0.375000000

     Diagonalizing the dynamical matrix

     q = (   -0.375000000   0.375000000  -0.375000000 ) 

 **************************************************************************
     freq (    1) =       3.139971 [THz] =     104.738149 [cm-1]
     freq (    2) =       3.139971 [THz] =     104.738149 [cm-1]
     freq (    3) =       9.597018 [THz] =     320.122052 [cm-1]
     freq (    4) =      13.486091 [THz] =     449.847568 [cm-1]
     freq (    5) =      14.760842 [THz] =     492.368703 [cm-1]
     freq (    6) =      14.760842 [THz] =     492.368703 [cm-1]
 **************************************************************************

     Mode symmetry, C_3v (3m)   point group:

     freq (   1-   2) =        104.7  [cm-1]   --> E    L_3           
     freq (   3-   3) =        320.1  [cm-1]   --> A_1  L_1           
     freq (   4-   4) =        449.8  [cm-1]   --> A_1  L_1           
     freq (   5-   6) =        492.4  [cm-1]   --> E    L_3           

     Calculation of q =    0.5000000  -0.5000000   0.5000000
 
     G-vector sticks info
     --------------------
     sticks:   dense  smooth     PW     G-vecs:    dense   smooth      PW
     Sum         571     571    211                 8873     8873    2085
 

     Title: 
     phonons for Si                                                             


     bravais-lattice index     =            0
     lattice parameter (alat)  =      10.1645  a.u.
     unit-cell volume          =     262.5448 (a.u.)^3
     number of atoms/cell      =            2
     number of atomic types    =            1
     number of electrons       =         8.00
     number of Kohn-Sham states=           34
     kinetic-energy cutoff     =      40.0000  Ry
     charge density cutoff     =     160.0000  Ry
     Exchange-correlation= PZ
                           (   1   1   0   0   0   0   0)

     celldm(1)=  10.164542  celldm(2)=   0.000000  celldm(3)=   0.000000
     celldm(4)=   0.000000  celldm(5)=   0.000000  celldm(6)=   0.000000

     crystal axes: (cart. coord. in units of alat)
               a(1) = (  -0.500000   0.000000   0.500000 )  
               a(2) = (   0.000000   0.500000   0.500000 )  
               a(3) = (  -0.500000   0.500000   0.000000 )  

     reciprocal axes: (cart. coord. in units 2 pi/alat)
               b(1) = ( -1.000000 -1.000000  1.000000 )  
               b(2) = (  1.000000  1.000000  1.000000 )  
               b(3) = ( -1.000000  1.000000 -1.000000 )  


     PseudoPot. # 1 for Si read from file:
     ./si.cpi.UPF
     MD5 check sum: b49e38a2651755062821566f72dc82b2
     Pseudo is Norm-conserving, Zval =  4.0
     Generated by new atomic code, or converted to UPF format
     Using radial grid of  495 points,  2 beta functions with: 
                l(1) =   1
                l(2) =   2

     atomic species   valence    mass     pseudopotential
        Si             4.00    28.08600     Si( 1.00)

     48 Sym. Ops., with inversion, found



   Cartesian axes

     site n.     atom                  positions (alat units)
         1           Si  tau(   1) = (   0.1250000  -0.1250000  -0.1250000  )
         2           Si  tau(   2) = (  -0.1250000   0.1250000   0.1250000  )

     number of k points=   408

     Number of k-points >= 100: set verbosity='high' to print them.

     Dense  grid:     8873 G-vectors     FFT dimensions: (  30,  30,  30)

     Estimated max dynamical RAM per process >       9.56 MB

     Estimated total dynamical RAM >     573.35 MB

     The potential is recalculated from file :
     ./_ph0/Si.q_5/Si.save/charge-density

     Starting wfcs are   18 atomic +   16 random wfcs

     Band Structure Calculation
     Davidson diagonalization with overlap

     ethr =  1.25E-10,  avg # of iterations = 14.7

     total cpu time spent up to now is       91.8 secs

     End of band structure calculation

     Number of k-points >= 100: set verbosity='high' to print the bands.

     highest occupied, lowest unoccupied level (ev):     6.2053    6.9068

     Writing output data file ./_ph0/Si.q_5/Si.save/

     phonons for Si                                                             

     bravais-lattice index     =            0
     lattice parameter (alat)  =      10.1645  a.u.
     unit-cell volume          =     262.5448 (a.u.)^3
     number of atoms/cell      =            2
     number of atomic types    =            1
     kinetic-energy cut-off    =      40.0000  Ry
     charge density cut-off    =     160.0000  Ry
     convergence threshold     =      1.0E-15
     beta                      =       0.7000
     number of iterations used =            4
     Exchange-correlation= PZ
                           (   1   1   0   0   0   0   0)


     celldm(1)=   10.16454  celldm(2)=    0.00000  celldm(3)=    0.00000
     celldm(4)=    0.00000  celldm(5)=    0.00000  celldm(6)=    0.00000

     crystal axes: (cart. coord. in units of alat)
               a(1) = ( -0.5000  0.0000  0.5000 )  
               a(2) = (  0.0000  0.5000  0.5000 )  
               a(3) = ( -0.5000  0.5000  0.0000 )  

     reciprocal axes: (cart. coord. in units 2 pi/alat)
               b(1) = ( -1.0000 -1.0000  1.0000 )  
               b(2) = (  1.0000  1.0000  1.0000 )  
               b(3) = ( -1.0000  1.0000 -1.0000 )  


     Atoms inside the unit cell: 

     Cartesian axes

     site n.  atom      mass           positions (alat units)
        1     Si  28.0860   tau(    1) = (    0.12500   -0.12500   -0.12500  )
        2     Si  28.0860   tau(    2) = (   -0.12500    0.12500    0.12500  )

     Computing dynamical matrix for 
                    q = (   0.5000000  -0.5000000   0.5000000 )
 
     13 Sym.Ops. (with q -> -q+G )


     G cutoff =  418.7317  (   8873 G-vectors)     FFT grid: ( 30, 30, 30)
     number of k points=   408

     PseudoPot. # 1 for Si read from file:
     ./si.cpi.UPF
     MD5 check sum: b49e38a2651755062821566f72dc82b2
     Pseudo is Norm-conserving, Zval =  4.0
     Generated by new atomic code, or converted to UPF format
     Using radial grid of  495 points,  2 beta functions with: 
                l(1) =   1
                l(2) =   2

     Mode symmetry, D_3d (-3m)  point group:


     Atomic displacements:
     There are    4 irreducible representations

     Representation     1      1 modes -  To be done

     Representation     2      2 modes -  To be done

     Representation     3      1 modes -  To be done

     Representation     4      2 modes -  To be done



     Alpha used in Ewald sum =   1.7000
     PHONON       :   4m18.56s CPU   8m35.51s WALL



     Representation #   1 mode #   1

     Self-consistent Calculation

      iter #   1 total cpu time :   517.7 secs   av.it.:   5.2
      thresh= 1.000E-02 alpha_mix =  0.700 |ddv_scf|^2 =  7.188E-06

      iter #   2 total cpu time :   521.7 secs   av.it.:   8.9
      thresh= 2.681E-04 alpha_mix =  0.700 |ddv_scf|^2 =  6.132E-06

      iter #   3 total cpu time :   523.0 secs   av.it.:   8.3
      thresh= 2.476E-04 alpha_mix =  0.700 |ddv_scf|^2 =  3.316E-10

      iter #   4 total cpu time :   524.5 secs   av.it.:   8.7
      thresh= 1.821E-06 alpha_mix =  0.700 |ddv_scf|^2 =  8.777E-12

      iter #   5 total cpu time :   525.5 secs   av.it.:   8.7
      thresh= 2.963E-07 alpha_mix =  0.700 |ddv_scf|^2 =  1.052E-13

      iter #   6 total cpu time :   528.5 secs   av.it.:   8.3
      thresh= 3.244E-08 alpha_mix =  0.700 |ddv_scf|^2 =  8.049E-16

     End of self-consistent calculation

     Convergence has been achieved 


     Representation #   2 modes #   2   3

     Self-consistent Calculation

      iter #   1 total cpu time :   532.0 secs   av.it.:   5.6
      thresh= 1.000E-02 alpha_mix =  0.700 |ddv_scf|^2 =  3.405E-07

      iter #   2 total cpu time :   534.8 secs   av.it.:  10.2
      thresh= 5.835E-05 alpha_mix =  0.700 |ddv_scf|^2 =  2.848E-08

      iter #   3 total cpu time :   536.9 secs   av.it.:  10.0
      thresh= 1.688E-05 alpha_mix =  0.700 |ddv_scf|^2 =  1.622E-11

      iter #   4 total cpu time :   539.1 secs   av.it.:   9.9
      thresh= 4.027E-07 alpha_mix =  0.700 |ddv_scf|^2 =  1.218E-13

      iter #   5 total cpu time :   544.0 secs   av.it.:   9.8
      thresh= 3.490E-08 alpha_mix =  0.700 |ddv_scf|^2 =  4.369E-16

     End of self-consistent calculation

     Convergence has been achieved 


     Representation #   3 mode #   4

     Self-consistent Calculation

      iter #   1 total cpu time :   546.8 secs   av.it.:   6.2
      thresh= 1.000E-02 alpha_mix =  0.700 |ddv_scf|^2 =  1.190E-04

      iter #   2 total cpu time :   548.1 secs   av.it.:   9.1
      thresh= 1.091E-03 alpha_mix =  0.700 |ddv_scf|^2 =  3.848E-04

      iter #   3 total cpu time :   549.6 secs   av.it.:   8.0
      thresh= 1.962E-03 alpha_mix =  0.700 |ddv_scf|^2 =  1.067E-08

      iter #   4 total cpu time :   550.9 secs   av.it.:   9.1
      thresh= 1.033E-05 alpha_mix =  0.700 |ddv_scf|^2 =  2.651E-10

      iter #   5 total cpu time :   552.7 secs   av.it.:   9.2
      thresh= 1.628E-06 alpha_mix =  0.700 |ddv_scf|^2 =  1.341E-11

      iter #   6 total cpu time :   554.2 secs   av.it.:   8.7
      thresh= 3.662E-07 alpha_mix =  0.700 |ddv_scf|^2 =  5.357E-15

      iter #   7 total cpu time :   557.4 secs   av.it.:   9.0
      thresh= 7.319E-09 alpha_mix =  0.700 |ddv_scf|^2 =  9.506E-16

     End of self-consistent calculation

     Convergence has been achieved 


     Representation #   4 modes #   5   6

     Self-consistent Calculation

      iter #   1 total cpu time :   561.4 secs   av.it.:   5.1
      thresh= 1.000E-02 alpha_mix =  0.700 |ddv_scf|^2 =  3.824E-08

      iter #   2 total cpu time :   563.8 secs   av.it.:  10.3
      thresh= 1.956E-05 alpha_mix =  0.700 |ddv_scf|^2 =  6.601E-10

      iter #   3 total cpu time :   568.3 secs   av.it.:  10.1
      thresh= 2.569E-06 alpha_mix =  0.700 |ddv_scf|^2 =  1.267E-11

      iter #   4 total cpu time :   570.4 secs   av.it.:   9.9
      thresh= 3.560E-07 alpha_mix =  0.700 |ddv_scf|^2 =  3.464E-14

      iter #   5 total cpu time :   574.3 secs   av.it.:  10.1
      thresh= 1.861E-08 alpha_mix =  0.700 |ddv_scf|^2 =  4.849E-16

     End of self-consistent calculation

     Convergence has been achieved 
 
     Number of q in the star =    4
     List of q in the star:
          1   0.500000000  -0.500000000   0.500000000
          2   0.500000000   0.500000000   0.500000000
          3  -0.500000000   0.500000000   0.500000000
          4   0.500000000   0.500000000  -0.500000000

     Diagonalizing the dynamical matrix

     q = (    0.500000000  -0.500000000   0.500000000 ) 

 **************************************************************************
     freq (    1) =       3.195328 [THz] =     106.584666 [cm-1]
     freq (    2) =       3.195328 [THz] =     106.584666 [cm-1]
     freq (    3) =      11.222533 [THz] =     374.343409 [cm-1]
     freq (    4) =      12.398088 [THz] =     413.555696 [cm-1]
     freq (    5) =      14.730527 [THz] =     491.357507 [cm-1]
     freq (    6) =      14.730527 [THz] =     491.357507 [cm-1]
 **************************************************************************

     Mode symmetry, D_3d (-3m)  point group:

     freq (   1-   2) =        106.6  [cm-1]   --> E_u  L_3'          
     freq (   3-   3) =        374.3  [cm-1]   --> A_1g L_1           
     freq (   4-   4) =        413.6  [cm-1]   --> A_2u L_2'          
     freq (   5-   6) =        491.4  [cm-1]   --> E_g  L_3           

     Calculation of q =    0.0000000   0.2500000   0.0000000
 
     G-vector sticks info
     --------------------
     sticks:   dense  smooth     PW     G-vecs:    dense   smooth      PW
     Sum         571     571    199                 8873     8873    1807
 

     Title: 
     phonons for Si                                                             


     bravais-lattice index     =            0
     lattice parameter (alat)  =      10.1645  a.u.
     unit-cell volume          =     262.5448 (a.u.)^3
     number of atoms/cell      =            2
     number of atomic types    =            1
     number of electrons       =         8.00
     number of Kohn-Sham states=           34
     kinetic-energy cutoff     =      40.0000  Ry
     charge density cutoff     =     160.0000  Ry
     Exchange-correlation= PZ
                           (   1   1   0   0   0   0   0)

     celldm(1)=  10.164542  celldm(2)=   0.000000  celldm(3)=   0.000000
     celldm(4)=   0.000000  celldm(5)=   0.000000  celldm(6)=   0.000000

     crystal axes: (cart. coord. in units of alat)
               a(1) = (  -0.500000   0.000000   0.500000 )  
               a(2) = (   0.000000   0.500000   0.500000 )  
               a(3) = (  -0.500000   0.500000   0.000000 )  

     reciprocal axes: (cart. coord. in units 2 pi/alat)
               b(1) = ( -1.000000 -1.000000  1.000000 )  
               b(2) = (  1.000000  1.000000  1.000000 )  
               b(3) = ( -1.000000  1.000000 -1.000000 )  


     PseudoPot. # 1 for Si read from file:
     ./si.cpi.UPF
     MD5 check sum: b49e38a2651755062821566f72dc82b2
     Pseudo is Norm-conserving, Zval =  4.0
     Generated by new atomic code, or converted to UPF format
     Using radial grid of  495 points,  2 beta functions with: 
                l(1) =   1
                l(2) =   2

     atomic species   valence    mass     pseudopotential
        Si             4.00    28.08600     Si( 1.00)

     48 Sym. Ops., with inversion, found



   Cartesian axes

     site n.     atom                  positions (alat units)
         1           Si  tau(   1) = (   0.1250000  -0.1250000  -0.1250000  )
         2           Si  tau(   2) = (  -0.1250000   0.1250000   0.1250000  )

     number of k points=   576

     Number of k-points >= 100: set verbosity='high' to print them.

     Dense  grid:     8873 G-vectors     FFT dimensions: (  30,  30,  30)

     Estimated max dynamical RAM per process >       9.55 MB

     Estimated total dynamical RAM >     573.09 MB

     The potential is recalculated from file :
     ./_ph0/Si.q_6/Si.save/charge-density

     Starting wfcs are   18 atomic +   16 random wfcs

     Band Structure Calculation
     Davidson diagonalization with overlap

     ethr =  1.25E-10,  avg # of iterations = 14.7

     total cpu time spent up to now is      110.1 secs

     End of band structure calculation

     Number of k-points >= 100: set verbosity='high' to print the bands.

     highest occupied, lowest unoccupied level (ev):     6.2053    6.9068

     Writing output data file ./_ph0/Si.q_6/Si.save/

     phonons for Si                                                             

     bravais-lattice index     =            0
     lattice parameter (alat)  =      10.1645  a.u.
     unit-cell volume          =     262.5448 (a.u.)^3
     number of atoms/cell      =            2
     number of atomic types    =            1
     kinetic-energy cut-off    =      40.0000  Ry
     charge density cut-off    =     160.0000  Ry
     convergence threshold     =      1.0E-15
     beta                      =       0.7000
     number of iterations used =            4
     Exchange-correlation= PZ
                           (   1   1   0   0   0   0   0)


     celldm(1)=   10.16454  celldm(2)=    0.00000  celldm(3)=    0.00000
     celldm(4)=    0.00000  celldm(5)=    0.00000  celldm(6)=    0.00000

     crystal axes: (cart. coord. in units of alat)
               a(1) = ( -0.5000  0.0000  0.5000 )  
               a(2) = (  0.0000  0.5000  0.5000 )  
               a(3) = ( -0.5000  0.5000  0.0000 )  

     reciprocal axes: (cart. coord. in units 2 pi/alat)
               b(1) = ( -1.0000 -1.0000  1.0000 )  
               b(2) = (  1.0000  1.0000  1.0000 )  
               b(3) = ( -1.0000  1.0000 -1.0000 )  


     Atoms inside the unit cell: 

     Cartesian axes

     site n.  atom      mass           positions (alat units)
        1     Si  28.0860   tau(    1) = (    0.12500   -0.12500   -0.12500  )
        2     Si  28.0860   tau(    2) = (   -0.12500    0.12500    0.12500  )

     Computing dynamical matrix for 
                    q = (   0.0000000   0.2500000   0.0000000 )
 
      8 Sym.Ops. (no q -> -q+G )


     G cutoff =  418.7317  (   8873 G-vectors)     FFT grid: ( 30, 30, 30)
     number of k points=   576

     PseudoPot. # 1 for Si read from file:
     ./si.cpi.UPF
     MD5 check sum: b49e38a2651755062821566f72dc82b2
     Pseudo is Norm-conserving, Zval =  4.0
     Generated by new atomic code, or converted to UPF format
     Using radial grid of  495 points,  2 beta functions with: 
                l(1) =   1
                l(2) =   2

     Mode symmetry, C_4v (4mm)  point group:


     Atomic displacements:
     There are    4 irreducible representations

     Representation     1      1 modes -  To be done

     Representation     2      1 modes -  To be done

     Representation     3      2 modes -  To be done

     Representation     4      2 modes -  To be done



     Alpha used in Ewald sum =   1.7000
     PHONON       :   5m 4.69s CPU  10m13.78s WALL



     Representation #   1 mode #   1

     Self-consistent Calculation

      iter #   1 total cpu time :   616.7 secs   av.it.:   6.4
      thresh= 1.000E-02 alpha_mix =  0.700 |ddv_scf|^2 =  1.261E-02

      iter #   2 total cpu time :   623.3 secs   av.it.:   7.9
      thresh= 1.000E-02 alpha_mix =  0.700 |ddv_scf|^2 =  5.423E-01

      iter #   3 total cpu time :   626.2 secs   av.it.:   7.8
      thresh= 1.000E-02 alpha_mix =  0.700 |ddv_scf|^2 =  5.121E-07

      iter #   4 total cpu time :   628.0 secs   av.it.:   7.6
      thresh= 7.156E-05 alpha_mix =  0.700 |ddv_scf|^2 =  1.744E-08

      iter #   5 total cpu time :   629.5 secs   av.it.:   7.2
      thresh= 1.321E-05 alpha_mix =  0.700 |ddv_scf|^2 =  2.513E-10

      iter #   6 total cpu time :   631.0 secs   av.it.:   7.0
      thresh= 1.585E-06 alpha_mix =  0.700 |ddv_scf|^2 =  2.840E-13

      iter #   7 total cpu time :   632.3 secs   av.it.:   7.8
      thresh= 5.329E-08 alpha_mix =  0.700 |ddv_scf|^2 =  1.252E-13

      iter #   8 total cpu time :   635.3 secs   av.it.:   6.5
      thresh= 3.538E-08 alpha_mix =  0.700 |ddv_scf|^2 =  3.094E-16

     End of self-consistent calculation

     Convergence has been achieved 


     Representation #   2 mode #   2

     Self-consistent Calculation

      iter #   1 total cpu time :   639.4 secs   av.it.:   5.4
      thresh= 1.000E-02 alpha_mix =  0.700 |ddv_scf|^2 =  7.207E-07

      iter #   2 total cpu time :   641.0 secs   av.it.:   9.4
      thresh= 8.489E-05 alpha_mix =  0.700 |ddv_scf|^2 =  6.086E-08

      iter #   3 total cpu time :   642.7 secs   av.it.:   9.2
      thresh= 2.467E-05 alpha_mix =  0.700 |ddv_scf|^2 =  1.089E-09

      iter #   4 total cpu time :   644.3 secs   av.it.:   9.2
      thresh= 3.300E-06 alpha_mix =  0.700 |ddv_scf|^2 =  1.205E-11

      iter #   5 total cpu time :   645.8 secs   av.it.:   9.0
      thresh= 3.471E-07 alpha_mix =  0.700 |ddv_scf|^2 =  5.444E-14

      iter #   6 total cpu time :   651.9 secs   av.it.:   8.8
      thresh= 2.333E-08 alpha_mix =  0.700 |ddv_scf|^2 =  2.230E-16

     End of self-consistent calculation

     Convergence has been achieved 


     Representation #   3 modes #   3   4

     Self-consistent Calculation

      iter #   1 total cpu time :   655.8 secs   av.it.:   5.6
      thresh= 1.000E-02 alpha_mix =  0.700 |ddv_scf|^2 =  1.469E-07

      iter #   2 total cpu time :   658.4 secs   av.it.:  10.5
      thresh= 3.833E-05 alpha_mix =  0.700 |ddv_scf|^2 =  8.871E-09

      iter #   3 total cpu time :   660.8 secs   av.it.:  10.1
      thresh= 9.418E-06 alpha_mix =  0.700 |ddv_scf|^2 =  2.920E-11

      iter #   4 total cpu time :   663.0 secs   av.it.:  10.1
      thresh= 5.403E-07 alpha_mix =  0.700 |ddv_scf|^2 =  1.802E-12

      iter #   5 total cpu time :   665.4 secs   av.it.:  10.1
      thresh= 1.342E-07 alpha_mix =  0.700 |ddv_scf|^2 =  2.856E-15

      iter #   6 total cpu time :   669.2 secs   av.it.:  10.7
      thresh= 5.344E-09 alpha_mix =  0.700 |ddv_scf|^2 =  1.547E-17

     End of self-consistent calculation

     Convergence has been achieved 


     Representation #   4 modes #   5   6

     Self-consistent Calculation

      iter #   1 total cpu time :   678.8 secs   av.it.:   5.6
      thresh= 1.000E-02 alpha_mix =  0.700 |ddv_scf|^2 =  1.738E-07

      iter #   2 total cpu time :   681.3 secs   av.it.:  10.5
      thresh= 4.169E-05 alpha_mix =  0.700 |ddv_scf|^2 =  1.186E-08

      iter #   3 total cpu time :   683.5 secs   av.it.:  10.1
      thresh= 1.089E-05 alpha_mix =  0.700 |ddv_scf|^2 =  2.318E-11

      iter #   4 total cpu time :   685.6 secs   av.it.:  10.1
      thresh= 4.814E-07 alpha_mix =  0.700 |ddv_scf|^2 =  1.584E-12

      iter #   5 total cpu time :   688.3 secs   av.it.:  10.1
      thresh= 1.259E-07 alpha_mix =  0.700 |ddv_scf|^2 =  3.455E-15

      iter #   6 total cpu time :   693.3 secs   av.it.:  10.6
      thresh= 5.878E-09 alpha_mix =  0.700 |ddv_scf|^2 =  1.582E-17

     End of self-consistent calculation

     Convergence has been achieved 
 
     Number of q in the star =    6
     List of q in the star:
          1   0.000000000   0.250000000   0.000000000
          2   0.000000000  -0.250000000   0.000000000
          3   0.250000000   0.000000000   0.000000000
          4   0.000000000   0.000000000   0.250000000
          5   0.000000000   0.000000000  -0.250000000
          6  -0.250000000   0.000000000   0.000000000

     Diagonalizing the dynamical matrix

     q = (    0.000000000   0.250000000   0.000000000 ) 

 **************************************************************************
     freq (    1) =       2.387003 [THz] =      79.621865 [cm-1]
     freq (    2) =       2.387003 [THz] =      79.621865 [cm-1]
     freq (    3) =       3.771632 [THz] =     125.808115 [cm-1]
     freq (    4) =      14.961383 [THz] =     499.058029 [cm-1]
     freq (    5) =      14.961383 [THz] =     499.058029 [cm-1]
     freq (    6) =      15.305854 [THz] =     510.548340 [cm-1]
 **************************************************************************

     Mode symmetry, C_4v (4mm)  point group:

     freq (   1-   2) =         79.6  [cm-1]   --> E    G_5 D_5       
     freq (   3-   3) =        125.8  [cm-1]   --> A_1  G_1 D_1       
     freq (   4-   5) =        499.1  [cm-1]   --> E    G_5 D_5       
     freq (   6-   6) =        510.5  [cm-1]   --> B_2  G_4 D_2'      

     Calculation of q =   -0.1250000   0.3750000  -0.1250000
 
     G-vector sticks info
     --------------------
     sticks:   dense  smooth     PW     G-vecs:    dense   smooth      PW
     Sum         571     571    199                 8873     8873    1837
 

     Title: 
     phonons for Si                                                             


     bravais-lattice index     =            0
     lattice parameter (alat)  =      10.1645  a.u.
     unit-cell volume          =     262.5448 (a.u.)^3
     number of atoms/cell      =            2
     number of atomic types    =            1
     number of electrons       =         8.00
     number of Kohn-Sham states=           34
     kinetic-energy cutoff     =      40.0000  Ry
     charge density cutoff     =     160.0000  Ry
     Exchange-correlation= PZ
                           (   1   1   0   0   0   0   0)

     celldm(1)=  10.164542  celldm(2)=   0.000000  celldm(3)=   0.000000
     celldm(4)=   0.000000  celldm(5)=   0.000000  celldm(6)=   0.000000

     crystal axes: (cart. coord. in units of alat)
               a(1) = (  -0.500000   0.000000   0.500000 )  
               a(2) = (   0.000000   0.500000   0.500000 )  
               a(3) = (  -0.500000   0.500000   0.000000 )  

     reciprocal axes: (cart. coord. in units 2 pi/alat)
               b(1) = ( -1.000000 -1.000000  1.000000 )  
               b(2) = (  1.000000  1.000000  1.000000 )  
               b(3) = ( -1.000000  1.000000 -1.000000 )  


     PseudoPot. # 1 for Si read from file:
     ./si.cpi.UPF
     MD5 check sum: b49e38a2651755062821566f72dc82b2
     Pseudo is Norm-conserving, Zval =  4.0
     Generated by new atomic code, or converted to UPF format
     Using radial grid of  495 points,  2 beta functions with: 
                l(1) =   1
                l(2) =   2

     atomic species   valence    mass     pseudopotential
        Si             4.00    28.08600     Si( 1.00)

     48 Sym. Ops., with inversion, found



   Cartesian axes

     site n.     atom                  positions (alat units)
         1           Si  tau(   1) = (   0.1250000  -0.1250000  -0.1250000  )
         2           Si  tau(   2) = (  -0.1250000   0.1250000   0.1250000  )

     number of k points=  2176

     Number of k-points >= 100: set verbosity='high' to print them.

     Dense  grid:     8873 G-vectors     FFT dimensions: (  30,  30,  30)

     Estimated max dynamical RAM per process >       9.55 MB

     Estimated total dynamical RAM >     573.16 MB

     The potential is recalculated from file :
     ./_ph0/Si.q_7/Si.save/charge-density

     Starting wfcs are   18 atomic +   16 random wfcs

     Band Structure Calculation
     Davidson diagonalization with overlap

     ethr =  1.25E-10,  avg # of iterations = 14.7

     total cpu time spent up to now is      166.4 secs

     End of band structure calculation

     Number of k-points >= 100: set verbosity='high' to print the bands.

     highest occupied, lowest unoccupied level (ev):     6.2053    6.9068

     Writing output data file ./_ph0/Si.q_7/Si.save/

     phonons for Si                                                             

     bravais-lattice index     =            0
     lattice parameter (alat)  =      10.1645  a.u.
     unit-cell volume          =     262.5448 (a.u.)^3
     number of atoms/cell      =            2
     number of atomic types    =            1
     kinetic-energy cut-off    =      40.0000  Ry
     charge density cut-off    =     160.0000  Ry
     convergence threshold     =      1.0E-15
     beta                      =       0.7000
     number of iterations used =            4
     Exchange-correlation= PZ
                           (   1   1   0   0   0   0   0)


     celldm(1)=   10.16454  celldm(2)=    0.00000  celldm(3)=    0.00000
     celldm(4)=    0.00000  celldm(5)=    0.00000  celldm(6)=    0.00000

     crystal axes: (cart. coord. in units of alat)
               a(1) = ( -0.5000  0.0000  0.5000 )  
               a(2) = (  0.0000  0.5000  0.5000 )  
               a(3) = ( -0.5000  0.5000  0.0000 )  

     reciprocal axes: (cart. coord. in units 2 pi/alat)
               b(1) = ( -1.0000 -1.0000  1.0000 )  
               b(2) = (  1.0000  1.0000  1.0000 )  
               b(3) = ( -1.0000  1.0000 -1.0000 )  


     Atoms inside the unit cell: 

     Cartesian axes

     site n.  atom      mass           positions (alat units)
        1     Si  28.0860   tau(    1) = (    0.12500   -0.12500   -0.12500  )
        2     Si  28.0860   tau(    2) = (   -0.12500    0.12500    0.12500  )

     Computing dynamical matrix for 
                    q = (  -0.1250000   0.3750000  -0.1250000 )
 
      2 Sym.Ops. (no q -> -q+G )


     G cutoff =  418.7317  (   8873 G-vectors)     FFT grid: ( 30, 30, 30)
     number of k points=  2176

     PseudoPot. # 1 for Si read from file:
     ./si.cpi.UPF
     MD5 check sum: b49e38a2651755062821566f72dc82b2
     Pseudo is Norm-conserving, Zval =  4.0
     Generated by new atomic code, or converted to UPF format
     Using radial grid of  495 points,  2 beta functions with: 
                l(1) =   1
                l(2) =   2

     Mode symmetry, C_s (m)     point group:


     Atomic displacements:
     There are    6 irreducible representations

     Representation     1      1 modes -  To be done

     Representation     2      1 modes -  To be done

     Representation     3      1 modes -  To be done

     Representation     4      1 modes -  To be done

     Representation     5      1 modes -  To be done

     Representation     6      1 modes -  To be done



     Alpha used in Ewald sum =   1.7000
     PHONON       :   6m34.36s CPU  12m50.20s WALL



     Representation #   1 mode #   1

     Self-consistent Calculation

      iter #   1 total cpu time :   775.7 secs   av.it.:   6.2
      thresh= 1.000E-02 alpha_mix =  0.700 |ddv_scf|^2 =  9.546E-04

      iter #   2 total cpu time :   781.3 secs   av.it.:   8.6
      thresh= 3.090E-03 alpha_mix =  0.700 |ddv_scf|^2 =  1.929E-02

      iter #   3 total cpu time :   785.0 secs   av.it.:   7.0
      thresh= 1.000E-02 alpha_mix =  0.700 |ddv_scf|^2 =  2.822E-07

      iter #   4 total cpu time :   788.5 secs   av.it.:   9.2
      thresh= 5.312E-05 alpha_mix =  0.700 |ddv_scf|^2 =  3.594E-08

      iter #   5 total cpu time :   794.4 secs   av.it.:   8.9
      thresh= 1.896E-05 alpha_mix =  0.700 |ddv_scf|^2 =  7.825E-11

      iter #   6 total cpu time :   798.7 secs   av.it.:   9.2
      thresh= 8.846E-07 alpha_mix =  0.700 |ddv_scf|^2 =  3.703E-12

      iter #   7 total cpu time :   802.0 secs   av.it.:   9.1
      thresh= 1.924E-07 alpha_mix =  0.700 |ddv_scf|^2 =  2.674E-11

      iter #   8 total cpu time :   805.2 secs   av.it.:   6.8
      thresh= 5.171E-07 alpha_mix =  0.700 |ddv_scf|^2 =  1.174E-12

      iter #   9 total cpu time :   808.7 secs   av.it.:   8.1
      thresh= 1.084E-07 alpha_mix =  0.700 |ddv_scf|^2 =  2.869E-13

      iter #  10 total cpu time :   812.1 secs   av.it.:   8.4
      thresh= 5.356E-08 alpha_mix =  0.700 |ddv_scf|^2 =  2.233E-15

      iter #  11 total cpu time :   817.4 secs   av.it.:   8.9
      thresh= 4.725E-09 alpha_mix =  0.700 |ddv_scf|^2 =  3.948E-16

     End of self-consistent calculation

     Convergence has been achieved 


     Representation #   2 mode #   2

     Self-consistent Calculation

      iter #   1 total cpu time :   826.2 secs   av.it.:   6.2
      thresh= 1.000E-02 alpha_mix =  0.700 |ddv_scf|^2 =  6.218E-04

      iter #   2 total cpu time :   830.0 secs   av.it.:   8.6
      thresh= 2.494E-03 alpha_mix =  0.700 |ddv_scf|^2 =  1.243E-02

      iter #   3 total cpu time :   834.1 secs   av.it.:   6.8
      thresh= 1.000E-02 alpha_mix =  0.700 |ddv_scf|^2 =  9.747E-08

      iter #   4 total cpu time :   837.5 secs   av.it.:   9.5
      thresh= 3.122E-05 alpha_mix =  0.700 |ddv_scf|^2 =  1.479E-08

      iter #   5 total cpu time :   841.2 secs   av.it.:   9.1
      thresh= 1.216E-05 alpha_mix =  0.700 |ddv_scf|^2 =  4.631E-11

      iter #   6 total cpu time :   844.5 secs   av.it.:   9.3
      thresh= 6.805E-07 alpha_mix =  0.700 |ddv_scf|^2 =  7.443E-11

      iter #   7 total cpu time :   849.6 secs   av.it.:   7.2
      thresh= 8.627E-07 alpha_mix =  0.700 |ddv_scf|^2 =  1.374E-11

      iter #   8 total cpu time :   853.3 secs   av.it.:   8.0
      thresh= 3.707E-07 alpha_mix =  0.700 |ddv_scf|^2 =  1.567E-13

      iter #   9 total cpu time :   856.5 secs   av.it.:   8.9
      thresh= 3.959E-08 alpha_mix =  0.700 |ddv_scf|^2 =  3.747E-13

      iter #  10 total cpu time :   860.5 secs   av.it.:   7.2
      thresh= 6.121E-08 alpha_mix =  0.700 |ddv_scf|^2 =  9.043E-16

     End of self-consistent calculation

     Convergence has been achieved 


     Representation #   3 mode #   3

     Self-consistent Calculation

      iter #   1 total cpu time :   865.9 secs   av.it.:   6.0
      thresh= 1.000E-02 alpha_mix =  0.700 |ddv_scf|^2 =  4.577E-04

      iter #   2 total cpu time :   869.2 secs   av.it.:   8.6
      thresh= 2.139E-03 alpha_mix =  0.700 |ddv_scf|^2 =  9.330E-03

      iter #   3 total cpu time :   874.9 secs   av.it.:   6.6
      thresh= 9.659E-03 alpha_mix =  0.700 |ddv_scf|^2 =  4.425E-07

      iter #   4 total cpu time :   878.5 secs   av.it.:   8.8
      thresh= 6.652E-05 alpha_mix =  0.700 |ddv_scf|^2 =  3.585E-08

      iter #   5 total cpu time :   882.3 secs   av.it.:   8.5
      thresh= 1.893E-05 alpha_mix =  0.700 |ddv_scf|^2 =  7.738E-11

      iter #   6 total cpu time :   885.7 secs   av.it.:   9.3
      thresh= 8.797E-07 alpha_mix =  0.700 |ddv_scf|^2 =  1.317E-11

      iter #   7 total cpu time :   888.9 secs   av.it.:   8.4
      thresh= 3.628E-07 alpha_mix =  0.700 |ddv_scf|^2 =  6.190E-11

      iter #   8 total cpu time :   892.0 secs   av.it.:   7.3
      thresh= 7.868E-07 alpha_mix =  0.700 |ddv_scf|^2 =  7.410E-14

      iter #   9 total cpu time :   895.3 secs   av.it.:   9.1
      thresh= 2.722E-08 alpha_mix =  0.700 |ddv_scf|^2 =  1.399E-14

      iter #  10 total cpu time :   898.7 secs   av.it.:   8.5
      thresh= 1.183E-08 alpha_mix =  0.700 |ddv_scf|^2 =  2.763E-16

     End of self-consistent calculation

     Convergence has been achieved 


     Representation #   4 mode #   4

     Self-consistent Calculation

      iter #   1 total cpu time :   902.6 secs   av.it.:   5.8
      thresh= 1.000E-02 alpha_mix =  0.700 |ddv_scf|^2 =  1.251E-04

      iter #   2 total cpu time :   905.7 secs   av.it.:   8.6
      thresh= 1.118E-03 alpha_mix =  0.700 |ddv_scf|^2 =  2.471E-03

      iter #   3 total cpu time :   908.5 secs   av.it.:   6.7
      thresh= 4.971E-03 alpha_mix =  0.700 |ddv_scf|^2 =  9.071E-08

      iter #   4 total cpu time :   911.6 secs   av.it.:   9.3
      thresh= 3.012E-05 alpha_mix =  0.700 |ddv_scf|^2 =  7.747E-09

      iter #   5 total cpu time :   915.2 secs   av.it.:   8.9
      thresh= 8.802E-06 alpha_mix =  0.700 |ddv_scf|^2 =  9.206E-11

      iter #   6 total cpu time :   918.8 secs   av.it.:   9.2
      thresh= 9.595E-07 alpha_mix =  0.700 |ddv_scf|^2 =  4.159E-11

      iter #   7 total cpu time :   921.9 secs   av.it.:   7.5
      thresh= 6.449E-07 alpha_mix =  0.700 |ddv_scf|^2 =  3.543E-11

      iter #   8 total cpu time :   925.2 secs   av.it.:   7.8
[...]

     End of band structure calculation

     Number of k-points >= 100: set verbosity='high' to print the bands.

     highest occupied, lowest unoccupied level (ev):     6.2053    6.9068

     Writing output data file ./_ph0/Si.q_28/Si.save/

     phonons for Si                                                             

     bravais-lattice index     =            0
     lattice parameter (alat)  =      10.1645  a.u.
     unit-cell volume          =     262.5448 (a.u.)^3
     number of atoms/cell      =            2
     number of atomic types    =            1
     kinetic-energy cut-off    =      40.0000  Ry
     charge density cut-off    =     160.0000  Ry
     convergence threshold     =      1.0E-15
     beta                      =       0.7000
     number of iterations used =            4
     Exchange-correlation= PZ
                           (   1   1   0   0   0   0   0)


     celldm(1)=   10.16454  celldm(2)=    0.00000  celldm(3)=    0.00000
     celldm(4)=    0.00000  celldm(5)=    0.00000  celldm(6)=    0.00000

     crystal axes: (cart. coord. in units of alat)
               a(1) = ( -0.5000  0.0000  0.5000 )  
               a(2) = (  0.0000  0.5000  0.5000 )  
               a(3) = ( -0.5000  0.5000  0.0000 )  

     reciprocal axes: (cart. coord. in units 2 pi/alat)
               b(1) = ( -1.0000 -1.0000  1.0000 )  
               b(2) = (  1.0000  1.0000  1.0000 )  
               b(3) = ( -1.0000  1.0000 -1.0000 )  


     Atoms inside the unit cell: 

     Cartesian axes

     site n.  atom      mass           positions (alat units)
        1     Si  28.0860   tau(    1) = (    0.12500   -0.12500   -0.12500  )
        2     Si  28.0860   tau(    2) = (   -0.12500    0.12500    0.12500  )

     Computing dynamical matrix for 
                    q = (  -0.2500000  -1.0000000   0.0000000 )
 
      4 Sym.Ops. (no q -> -q+G )


     G cutoff =  418.7317  (   8873 G-vectors)     FFT grid: ( 30, 30, 30)
     number of k points=  1024

     PseudoPot. # 1 for Si read from file:
     ./si.cpi.UPF
     MD5 check sum: b49e38a2651755062821566f72dc82b2
     Pseudo is Norm-conserving, Zval =  4.0
     Generated by new atomic code, or converted to UPF format
     Using radial grid of  495 points,  2 beta functions with: 
                l(1) =   1
                l(2) =   2


     Atomic displacements:
     There are    3 irreducible representations

     Representation     1      2 modes -  To be done

     Representation     2      2 modes -  To be done

     Representation     3      2 modes -  To be done



     Alpha used in Ewald sum =   1.7000
     PHONON       :      1h13m CPU      1h46m WALL



     Representation #   1 modes #   1   2

     Self-consistent Calculation

      iter #   1 total cpu time :  6399.4 secs   av.it.:   5.8
      thresh= 1.000E-02 alpha_mix =  0.700 |ddv_scf|^2 =  1.462E-06

      iter #   2 total cpu time :  6402.7 secs   av.it.:  10.4
      thresh= 1.209E-04 alpha_mix =  0.700 |ddv_scf|^2 =  1.674E-06

      iter #   3 total cpu time :  6406.0 secs   av.it.:   9.7
      thresh= 1.294E-04 alpha_mix =  0.700 |ddv_scf|^2 =  1.164E-08

      iter #   4 total cpu time :  6409.5 secs   av.it.:   9.9
      thresh= 1.079E-05 alpha_mix =  0.700 |ddv_scf|^2 =  5.920E-11

      iter #   5 total cpu time :  6412.8 secs   av.it.:  10.1
      thresh= 7.694E-07 alpha_mix =  0.700 |ddv_scf|^2 =  2.193E-12

      iter #   6 total cpu time :  6416.1 secs   av.it.:  10.2
      thresh= 1.481E-07 alpha_mix =  0.700 |ddv_scf|^2 =  2.095E-14

      iter #   7 total cpu time :  6420.8 secs   av.it.:  10.0
      thresh= 1.447E-08 alpha_mix =  0.700 |ddv_scf|^2 =  2.535E-16

     End of self-consistent calculation

     Convergence has been achieved 


     Representation #   2 modes #   3   4

     Self-consistent Calculation

      iter #   1 total cpu time :  6425.7 secs   av.it.:   5.9
      thresh= 1.000E-02 alpha_mix =  0.700 |ddv_scf|^2 =  2.240E-06

      iter #   2 total cpu time :  6428.9 secs   av.it.:  10.4
      thresh= 1.497E-04 alpha_mix =  0.700 |ddv_scf|^2 =  2.522E-06

      iter #   3 total cpu time :  6432.1 secs   av.it.:   9.6
      thresh= 1.588E-04 alpha_mix =  0.700 |ddv_scf|^2 =  2.127E-08

      iter #   4 total cpu time :  6435.2 secs   av.it.:   9.8
      thresh= 1.459E-05 alpha_mix =  0.700 |ddv_scf|^2 =  8.370E-11

      iter #   5 total cpu time :  6438.7 secs   av.it.:  10.0
      thresh= 9.149E-07 alpha_mix =  0.700 |ddv_scf|^2 =  2.467E-12

      iter #   6 total cpu time :  6442.2 secs   av.it.:  10.1
      thresh= 1.571E-07 alpha_mix =  0.700 |ddv_scf|^2 =  2.367E-14

      iter #   7 total cpu time :  6445.3 secs   av.it.:   9.8
      thresh= 1.538E-08 alpha_mix =  0.700 |ddv_scf|^2 =  2.614E-16

     End of self-consistent calculation

     Convergence has been achieved 


     Representation #   3 modes #   5   6

     Self-consistent Calculation

      iter #   1 total cpu time :  6449.6 secs   av.it.:   6.1
      thresh= 1.000E-02 alpha_mix =  0.700 |ddv_scf|^2 =  3.063E-06

      iter #   2 total cpu time :  6453.4 secs   av.it.:  10.4
      thresh= 1.750E-04 alpha_mix =  0.700 |ddv_scf|^2 =  3.441E-06

      iter #   3 total cpu time :  6456.7 secs   av.it.:   9.7
      thresh= 1.855E-04 alpha_mix =  0.700 |ddv_scf|^2 =  2.581E-08

      iter #   4 total cpu time :  6460.3 secs   av.it.:   9.8
      thresh= 1.606E-05 alpha_mix =  0.700 |ddv_scf|^2 =  1.842E-11

      iter #   5 total cpu time :  6463.7 secs   av.it.:  10.0
      thresh= 4.292E-07 alpha_mix =  0.700 |ddv_scf|^2 =  1.914E-12

      iter #   6 total cpu time :  6467.0 secs   av.it.:  10.0
      thresh= 1.383E-07 alpha_mix =  0.700 |ddv_scf|^2 =  3.764E-14

      iter #   7 total cpu time :  6470.2 secs   av.it.:  10.2
      thresh= 1.940E-08 alpha_mix =  0.700 |ddv_scf|^2 =  1.204E-16

     End of self-consistent calculation

     Convergence has been achieved 
 
     Number of q in the star =   12
     List of q in the star:
          1  -0.250000000  -1.000000000   0.000000000
          2   0.000000000  -1.000000000   0.250000000
          3   0.000000000  -1.000000000  -0.250000000
          4   0.250000000  -1.000000000   0.000000000
          5  -1.000000000   0.000000000  -0.250000000
          6   1.000000000   0.000000000   0.250000000
          7  -1.000000000  -0.250000000   0.000000000
          8   0.000000000  -0.250000000  -1.000000000
          9   0.000000000   0.250000000  -1.000000000
         10   1.000000000   0.250000000   0.000000000
         11  -0.250000000   0.000000000   1.000000000
         12   0.250000000   0.000000000   1.000000000

     Diagonalizing the dynamical matrix

     q = (   -0.250000000  -1.000000000   0.000000000 ) 

 **************************************************************************
     freq (    1) =       5.114240 [THz] =     170.592672 [cm-1]
     freq (    2) =       5.114240 [THz] =     170.592672 [cm-1]
     freq (    3) =      11.396920 [THz] =     380.160342 [cm-1]
     freq (    4) =      11.396920 [THz] =     380.160342 [cm-1]
     freq (    5) =      13.982676 [THz] =     466.411880 [cm-1]
     freq (    6) =      13.982676 [THz] =     466.411880 [cm-1]
 **************************************************************************

     Calculation of q =   -0.5000000  -1.0000000   0.0000000
 
     G-vector sticks info
     --------------------
     sticks:   dense  smooth     PW     G-vecs:    dense   smooth      PW
     Sum         571     571    211                 8873     8873    2085
 

     Title: 
     phonons for Si                                                             


     bravais-lattice index     =            0
     lattice parameter (alat)  =      10.1645  a.u.
     unit-cell volume          =     262.5448 (a.u.)^3
     number of atoms/cell      =            2
     number of atomic types    =            1
     number of electrons       =         8.00
     number of Kohn-Sham states=           34
     kinetic-energy cutoff     =      40.0000  Ry
     charge density cutoff     =     160.0000  Ry
     Exchange-correlation= PZ
                           (   1   1   0   0   0   0   0)

     celldm(1)=  10.164542  celldm(2)=   0.000000  celldm(3)=   0.000000
     celldm(4)=   0.000000  celldm(5)=   0.000000  celldm(6)=   0.000000

     crystal axes: (cart. coord. in units of alat)
               a(1) = (  -0.500000   0.000000   0.500000 )  
               a(2) = (   0.000000   0.500000   0.500000 )  
               a(3) = (  -0.500000   0.500000   0.000000 )  

     reciprocal axes: (cart. coord. in units 2 pi/alat)
               b(1) = ( -1.000000 -1.000000  1.000000 )  
               b(2) = (  1.000000  1.000000  1.000000 )  
               b(3) = ( -1.000000  1.000000 -1.000000 )  


     PseudoPot. # 1 for Si read from file:
     ./si.cpi.UPF
     MD5 check sum: b49e38a2651755062821566f72dc82b2
     Pseudo is Norm-conserving, Zval =  4.0
     Generated by new atomic code, or converted to UPF format
     Using radial grid of  495 points,  2 beta functions with: 
                l(1) =   1
                l(2) =   2

     atomic species   valence    mass     pseudopotential
        Si             4.00    28.08600     Si( 1.00)

     48 Sym. Ops., with inversion, found



   Cartesian axes

     site n.     atom                  positions (alat units)
         1           Si  tau(   1) = (   0.1250000  -0.1250000  -0.1250000  )
         2           Si  tau(   2) = (  -0.1250000   0.1250000   0.1250000  )

     number of k points=   512

     Number of k-points >= 100: set verbosity='high' to print them.

     Dense  grid:     8873 G-vectors     FFT dimensions: (  30,  30,  30)

     Estimated max dynamical RAM per process >       9.56 MB

     Estimated total dynamical RAM >     573.46 MB

     The potential is recalculated from file :
     ./_ph0/Si.q_29/Si.save/charge-density

     Starting wfcs are   18 atomic +   16 random wfcs

     Band Structure Calculation
     Davidson diagonalization with overlap

     ethr =  1.25E-10,  avg # of iterations = 14.7

     total cpu time spent up to now is     1305.5 secs

     End of band structure calculation

     Number of k-points >= 100: set verbosity='high' to print the bands.

     highest occupied, lowest unoccupied level (ev):     6.2053    6.9068

     Writing output data file ./_ph0/Si.q_29/Si.save/

     phonons for Si                                                             

     bravais-lattice index     =            0
     lattice parameter (alat)  =      10.1645  a.u.
     unit-cell volume          =     262.5448 (a.u.)^3
     number of atoms/cell      =            2
     number of atomic types    =            1
     kinetic-energy cut-off    =      40.0000  Ry
     charge density cut-off    =     160.0000  Ry
     convergence threshold     =      1.0E-15
     beta                      =       0.7000
     number of iterations used =            4
     Exchange-correlation= PZ
                           (   1   1   0   0   0   0   0)


     celldm(1)=   10.16454  celldm(2)=    0.00000  celldm(3)=    0.00000
     celldm(4)=    0.00000  celldm(5)=    0.00000  celldm(6)=    0.00000

     crystal axes: (cart. coord. in units of alat)
               a(1) = ( -0.5000  0.0000  0.5000 )  
               a(2) = (  0.0000  0.5000  0.5000 )  
               a(3) = ( -0.5000  0.5000  0.0000 )  

     reciprocal axes: (cart. coord. in units 2 pi/alat)
               b(1) = ( -1.0000 -1.0000  1.0000 )  
               b(2) = (  1.0000  1.0000  1.0000 )  
               b(3) = ( -1.0000  1.0000 -1.0000 )  


     Atoms inside the unit cell: 

     Cartesian axes

     site n.  atom      mass           positions (alat units)
        1     Si  28.0860   tau(    1) = (    0.12500   -0.12500   -0.12500  )
        2     Si  28.0860   tau(    2) = (   -0.12500    0.12500    0.12500  )

     Computing dynamical matrix for 
                    q = (  -0.5000000  -1.0000000   0.0000000 )
 
      8 Sym.Ops. (no q -> -q+G )


     G cutoff =  418.7317  (   8873 G-vectors)     FFT grid: ( 30, 30, 30)
     number of k points=   512

     PseudoPot. # 1 for Si read from file:
     ./si.cpi.UPF
     MD5 check sum: b49e38a2651755062821566f72dc82b2
     Pseudo is Norm-conserving, Zval =  4.0
     Generated by new atomic code, or converted to UPF format
     Using radial grid of  495 points,  2 beta functions with: 
                l(1) =   1
                l(2) =   2


     Atomic displacements:
     There are    3 irreducible representations

     Representation     1      2 modes -  To be done

     Representation     2      2 modes -  To be done

     Representation     3      2 modes -  To be done



     Alpha used in Ewald sum =   1.7000
     PHONON       :      1h14m CPU      1h48m WALL



     Representation #   1 modes #   1   2

     Self-consistent Calculation

      iter #   1 total cpu time :  6487.0 secs   av.it.:   5.5
      thresh= 1.000E-02 alpha_mix =  0.700 |ddv_scf|^2 =  6.940E-07

      iter #   2 total cpu time :  6489.3 secs   av.it.:  10.3
      thresh= 8.331E-05 alpha_mix =  0.700 |ddv_scf|^2 =  4.270E-07

      iter #   3 total cpu time :  6492.9 secs   av.it.:   9.8
      thresh= 6.534E-05 alpha_mix =  0.700 |ddv_scf|^2 =  8.931E-11

      iter #   4 total cpu time :  6495.7 secs   av.it.:  10.0
      thresh= 9.450E-07 alpha_mix =  0.700 |ddv_scf|^2 =  2.375E-12

      iter #   5 total cpu time :  6497.5 secs   av.it.:   9.9
      thresh= 1.541E-07 alpha_mix =  0.700 |ddv_scf|^2 =  1.158E-14

      iter #   6 total cpu time :  6499.4 secs   av.it.:  10.3
      thresh= 1.076E-08 alpha_mix =  0.700 |ddv_scf|^2 =  7.860E-17

     End of self-consistent calculation

     Convergence has been achieved 


     Representation #   2 modes #   3   4

     Self-consistent Calculation

      iter #   1 total cpu time :  6501.8 secs   av.it.:   5.9
      thresh= 1.000E-02 alpha_mix =  0.700 |ddv_scf|^2 =  3.193E-06

      iter #   2 total cpu time :  6503.7 secs   av.it.:  10.3
      thresh= 1.787E-04 alpha_mix =  0.700 |ddv_scf|^2 =  4.182E-06

      iter #   3 total cpu time :  6505.6 secs   av.it.:   9.6
      thresh= 2.045E-04 alpha_mix =  0.700 |ddv_scf|^2 =  3.699E-10

      iter #   4 total cpu time :  6507.5 secs   av.it.:   9.9
      thresh= 1.923E-06 alpha_mix =  0.700 |ddv_scf|^2 =  5.483E-12

      iter #   5 total cpu time :  6509.6 secs   av.it.:   9.9
      thresh= 2.342E-07 alpha_mix =  0.700 |ddv_scf|^2 =  3.867E-14

      iter #   6 total cpu time :  6511.6 secs   av.it.:   9.7
      thresh= 1.967E-08 alpha_mix =  0.700 |ddv_scf|^2 =  5.731E-16

     End of self-consistent calculation

     Convergence has been achieved 


     Representation #   3 modes #   5   6

     Self-consistent Calculation

      iter #   1 total cpu time :  6514.7 secs   av.it.:   6.1
      thresh= 1.000E-02 alpha_mix =  0.700 |ddv_scf|^2 =  2.604E-06

      iter #   2 total cpu time :  6516.8 secs   av.it.:  10.3
      thresh= 1.614E-04 alpha_mix =  0.700 |ddv_scf|^2 =  1.714E-06

      iter #   3 total cpu time :  6518.8 secs   av.it.:   9.7
      thresh= 1.309E-04 alpha_mix =  0.700 |ddv_scf|^2 =  5.453E-11

      iter #   4 total cpu time :  6520.8 secs   av.it.:  10.1
      thresh= 7.384E-07 alpha_mix =  0.700 |ddv_scf|^2 =  5.224E-12

      iter #   5 total cpu time :  6524.4 secs   av.it.:  10.0
      thresh= 2.286E-07 alpha_mix =  0.700 |ddv_scf|^2 =  3.653E-15

      iter #   6 total cpu time :  6528.7 secs   av.it.:  10.2
      thresh= 6.044E-09 alpha_mix =  0.700 |ddv_scf|^2 =  1.059E-16

     End of self-consistent calculation

     Convergence has been achieved 
 
     Number of q in the star =    6
     List of q in the star:
          1  -0.500000000  -1.000000000   0.000000000
          2   0.000000000   1.000000000   0.500000000
          3   0.500000000  -1.000000000   0.000000000
          4   0.000000000   1.000000000  -0.500000000
          5  -1.000000000  -0.500000000   0.000000000
          6   0.000000000  -0.500000000  -1.000000000

     Diagonalizing the dynamical matrix

     q = (   -0.500000000  -1.000000000   0.000000000 ) 

 **************************************************************************
     freq (    1) =       5.975377 [THz] =     199.317133 [cm-1]
     freq (    2) =       5.975377 [THz] =     199.317133 [cm-1]
     freq (    3) =      10.578442 [THz] =     352.858858 [cm-1]
     freq (    4) =      10.578442 [THz] =     352.858858 [cm-1]
     freq (    5) =      14.037181 [THz] =     468.229956 [cm-1]
     freq (    6) =      14.037181 [THz] =     468.229956 [cm-1]
 **************************************************************************
 
     PHONON       :      1h15m CPU      1h48m WALL

     INITIALIZATION: 
     phq_setup    :      0.20s CPU     14.92s WALL (      29 calls)
     phq_init     :      8.63s CPU     16.96s WALL (      29 calls)
 
     phq_init     :      8.63s CPU     16.96s WALL (      29 calls)
     init_vloc    :      0.01s CPU      0.01s WALL (      29 calls)
     init_us_1    :      1.20s CPU      1.20s WALL (      29 calls)
 
     DYNAMICAL MATRIX:
     dynmat0      :      6.32s CPU     14.36s WALL (      29 calls)
     phqscf       :   3380.62s CPU   4861.05s WALL (      29 calls)
     dynmatrix    :      0.56s CPU     11.11s WALL (      29 calls)
 
     phqscf       :   3380.62s CPU   4861.05s WALL (      29 calls)
     solve_linter :   3367.61s CPU   4738.05s WALL (     147 calls)
     drhodv       :     12.42s CPU     13.71s WALL (     147 calls)
 
     dynmat0      :      6.32s CPU     14.36s WALL (      29 calls)
     dynmat_us    :      5.90s CPU      6.12s WALL (      29 calls)
     d2ionq       :      0.33s CPU      0.33s WALL (      29 calls)
 
     dynmat_us    :      5.90s CPU      6.12s WALL (      29 calls)
 
     phqscf       :   3380.62s CPU   4861.05s WALL (      29 calls)
     solve_linter :   3367.61s CPU   4738.05s WALL (     147 calls)
 
     solve_linter :   3367.61s CPU   4738.05s WALL (     147 calls)
     dvqpsi_us    :    207.84s CPU    212.32s WALL (    2412 calls)
     ortho        :      4.34s CPU      4.72s WALL (   21159 calls)
     cgsolve      :   2148.47s CPU   2210.00s WALL (   21159 calls)
     incdrhoscf   :    188.56s CPU    211.38s WALL (   21156 calls)
     vpsifft      :    173.57s CPU    188.35s WALL (   18735 calls)
     dv_of_drho   :      4.52s CPU      4.64s WALL (    1394 calls)
     mix_pot      :      4.65s CPU    589.16s WALL (    1225 calls)
     psymdvscf    :     30.14s CPU     30.22s WALL (    1091 calls)
 
     dvqpsi_us    :    207.84s CPU    212.32s WALL (    2412 calls)
     dvqpsi_us_on :      9.25s CPU      9.35s WALL (    2412 calls)
 
     cgsolve      :   2148.47s CPU   2210.00s WALL (   21159 calls)
     ch_psi       :   2120.72s CPU   2180.24s WALL (  228939 calls)
 
     ch_psi       :   2120.72s CPU   2180.24s WALL (  228939 calls)
     h_psi        :   2730.67s CPU   2801.78s WALL (  242243 calls)
     last         :     73.97s CPU     76.45s WALL (  228939 calls)
 
     h_psi        :   2730.67s CPU   2801.78s WALL (  242243 calls)
     add_vuspsi   :     34.31s CPU     35.90s WALL (  242243 calls)
 
     incdrhoscf   :    188.56s CPU    211.38s WALL (   21156 calls)
 
 
      General routines
     calbec       :     70.15s CPU     73.49s WALL (  484819 calls)
     fft          :      3.34s CPU      4.14s WALL (    4298 calls)
     ffts         :      2.25s CPU      2.51s WALL (    3294 calls)
     fftw         :   2824.33s CPU   2923.66s WALL ( 2682718 calls)
     davcio       :     41.85s CPU    220.47s WALL (  115980 calls)
     write_rec    :      4.03s CPU    698.04s WALL (    1372 calls)
 
 
     PHONON       :      1h15m CPU      1h48m WALL

 
   This run was terminated on:  13:13:49   2Feb2021            

=------------------------------------------------------------------------------=
   JOB DONE.
=------------------------------------------------------------------------------=
