                                                                                      
                                       ``:oss/                                        
                           `.+s+.     .+ys--yh+     `./ss+.                           
                          -sh//yy+`   +yy   +yy    -+h+-oyy                           
                          -yh- .oyy/.-sh.   .syo-.:sy-  /yh                           
                 `.-.`    `yh+   -oyyyo.     `/syys:    oys      `.`                  
               `/+ssys+-` `sh+      `                   oys`   .:osyo`                
               -yh- ./syyooyo`                          .sys+/oyo--yh/                
               `yy+    .-:-.                             `-/+/:`  -sh-                
                /yh.                                              oys                 
          ``..---hho---------`   .---------..`      `.-----.`    -hd+---.             
       `./osmNMMMMMMMMMMMMMMMs. +NNMMMMMMMMNNmh+.   yNMMMMMNm-  oNMMMMMNmo++:`        
       +sy--/sdMMMhyyyyyyyNMMh- .oyNMMmyyyyyhNMMm+` -yMMMdyyo:` .oyyNMMNhs+syy`       
       -yy/   /MMM+.`-+/``mMMy-   `mMMh:`````.dMMN:` `MMMy-`-dhhy```mMMy:``+hs        
        -yy+` /MMMo:-mMM+`-oo/.    mMMh:     `dMMN/`  dMMm:`dMMMMy..MMMo-.+yo`        
         .sys`/MMMMNNMMMs-         mMMmyooooymMMNo:   oMMM/sMMMMMM++MMN//oh:          
          `sh+/MMMhyyMMMs- `-`     mMMMMMMMMMNmy+-`   -MMMhMMMsmMMmdMMd/yy+           
    `-/+++oyy-/MMM+.`/hh/.`mNm:`   mMMd+/////:-.`      NMMMMMd/:NMMMMMy:/yyo/:.`      
   +os+//:-..-oMMMo:--:::-/MMMo. .-mMMd+---`           hMMMMN+. oMMMMMo. `-+osyso:`   
   syo     `mNMMMMMNNNNNNNNMMMo.oNNMMMMMNNNN:`         +MMMMs:`  dMMMN/`     ``:syo   
   /yh`     :syyyyyyyyyyyyyyyy+.`+syyyyyyyyo:`         .oyys:`   .oyys:`        +yh   
   -yh-        ````````````````    `````````              ``        ``          oys   
   -+h/------------------------::::::::://////++++++++++++++++++++++///////::::/yd:   
   shdddddddddddddddddddddddddddddhhhhhhhhyyyyyssssssssssssssssyyyyyyyhhhhhhhddddh`   
                                                                                      
  S. Ponce, E. R. Margine, C. Verdi, and F. Giustino,                                 
                                                Comput. Phys. Commun. 209, 116 (2016) 
                                                                                      

     Program EPW v.5.3.0 starts on  7Aug2020 at  8:31:50 

     This program is part of the open-source Quantum ESPRESSO suite
     for quantum simulation of materials; please cite
         "P. Giannozzi et al., J. Phys.:Condens. Matter 21 395502 (2009);
         "P. Giannozzi et al., J. Phys.:Condens. Matter 29 465901 (2017);
          URL http://www.quantum-espresso.org", 
     in publications or presentations arising from this work. More details at
     http://www.quantum-espresso.org/quote

     Parallel version (MPI & OpenMP), running on      96 processor cores
     Number of MPI processes:                96
     Threads/MPI process:                     1

     MPI processes distributed on     2 nodes
     K-points division:     npool     =      96
     Fft bands division:     nmany     =       1

     WARNING: The specified dis_win_min is ignored.
              You should instead use bands_skipped = 'exclude_bands = ...'
              to control the lower bound of band manifold.

     No temperature supplied. Setting temps(:) to 300 K.

     Reading xml data from directory:

     ./GeO2.save/
     file Ge_LDA.cpi.UPF: wavefunction(s)  4s 4p 4d renormalized
     file o.cpi.UPF: wavefunction(s)  3d renormalized

     IMPORTANT: XC functional enforced from input :
     Exchange-correlation= PZ
                           (   1   1   0   0   0   0   0)
     Any further DFT definition will be discarded
     Please, verify this is what you really want

 
     G-vector sticks info
     --------------------
     sticks:   dense  smooth     PW     G-vecs:    dense   smooth      PW
     Sum        1367    1367    443                47237    47237    8523
 
     Reading collected, re-writing distributed wavefunctions
  autoval = -.9763E-01
     Irreps are as follows:

                     mode #   1
                     (  -0.00000   0.00000   ) 
                     (  -0.70125   0.00000   ) 
                     (   0.70422   0.00000   ) 
                     (   0.00000   0.00000   ) 
                     (   0.06387   0.00000   ) 
                     (  -0.09080   0.00000   ) 
                     (   0.00000   0.00000   ) 
                     (   0.00000   0.00000   ) 
                     (   0.00000   0.00000   ) 
                     (   0.00000   0.00000   ) 
                     (   0.00000   0.00000   ) 
                     (   0.00000   0.00000   ) 
                     (   0.00000   0.00000   ) 
                     (   0.00000   0.00000   ) 
                     (   0.00000   0.00000   ) 
                     (   0.00000   0.00000   ) 
                     (   0.00000   0.00000   ) 
                     (   0.00000   0.00000   ) 
  autoval = -.9763E-01
     Irreps are as follows:

                     mode #   2
                     (  -0.00000   0.00000   ) 
                     (  -0.09080   0.00000   ) 
                     (  -0.06387   0.00000   ) 
                     (   0.00000   0.00000   ) 
                     (   0.70422   0.00000   ) 
                     (   0.70125   0.00000   ) 
                     (   0.00000   0.00000   ) 
                     (   0.00000   0.00000   ) 
                     (   0.00000   0.00000   ) 
                     (   0.00000   0.00000   ) 
                     (   0.00000   0.00000   ) 
                     (   0.00000   0.00000   ) 
                     (   0.00000   0.00000   ) 
                     (   0.00000   0.00000   ) 
                     (   0.00000   0.00000   ) 
                     (   0.00000   0.00000   ) 
                     (   0.00000   0.00000   ) 
                     (   0.00000   0.00000   ) 
  autoval = -.6757E-01
     Irreps are as follows:

                     mode #   3
                     (   0.00000   0.00000   ) 
                     (   0.00000   0.00000   ) 
                     (   0.00000   0.00000   ) 
                     (   0.00000   0.00000   ) 
                     (   0.00000   0.00000   ) 
                     (   0.00000   0.00000   ) 
                     (  -0.50000   0.00000   ) 
                     (   0.00000   0.00000   ) 
                     (  -0.00000   0.00000   ) 
                     (  -0.50000   0.00000   ) 
                     (   0.00000   0.00000   ) 
                     (  -0.00000   0.00000   ) 
                     (  -0.50000   0.00000   ) 
                     (  -0.00000   0.00000   ) 
                     (   0.00000   0.00000   ) 
                     (  -0.50000   0.00000   ) 
                     (  -0.00000   0.00000   ) 
                     (  -0.00000   0.00000   ) 
  autoval = -.3491E-01
     Irreps are as follows:

                     mode #   4
                     (   0.00000   0.00000   ) 
                     (   0.00000   0.00000   ) 
                     (   0.00000   0.00000   ) 
                     (   0.00000   0.00000   ) 
                     (   0.00000   0.00000   ) 
                     (   0.00000   0.00000   ) 
                     (  -0.50000   0.00000   ) 
                     (  -0.00000   0.00000   ) 
                     (   0.00000   0.00000   ) 
                     (  -0.50000   0.00000   ) 
                     (   0.00000   0.00000   ) 
                     (   0.00000   0.00000   ) 
                     (   0.50000   0.00000   ) 
                     (   0.00000   0.00000   ) 
                     (  -0.00000   0.00000   ) 
                     (   0.50000   0.00000   ) 
                     (   0.00000   0.00000   ) 
                     (  -0.00000   0.00000   ) 
  autoval = -.3317E-01
     Irreps are as follows:

                     mode #   5
                     (   0.00000   0.00000   ) 
                     (   0.00000   0.00000   ) 
                     (   0.00000   0.00000   ) 
                     (   0.00000   0.00000   ) 
                     (   0.00000   0.00000   ) 
                     (   0.00000   0.00000   ) 
                     (  -0.00000   0.00000   ) 
                     (  -0.48564   0.00000   ) 
                     (   0.27641   0.00000   ) 
                     (  -0.00000   0.00000   ) 
                     (  -0.48564   0.00000   ) 
                     (   0.27641   0.00000   ) 
                     (  -0.00000   0.00000   ) 
                     (   0.41665   0.00000   ) 
                     (   0.11899   0.00000   ) 
                     (  -0.00000   0.00000   ) 
                     (   0.41665   0.00000   ) 
                     (   0.11899   0.00000   ) 
  autoval = -.3317E-01
     Irreps are as follows:

                     mode #   6
                     (   0.00000   0.00000   ) 
                     (   0.00000   0.00000   ) 
                     (   0.00000   0.00000   ) 
                     (   0.00000   0.00000   ) 
                     (   0.00000   0.00000   ) 
                     (   0.00000   0.00000   ) 
                     (   0.00000   0.00000   ) 
                     (  -0.11899   0.00000   ) 
                     (   0.41665   0.00000   ) 
                     (   0.00000   0.00000   ) 
                     (  -0.11899   0.00000   ) 
                     (   0.41665   0.00000   ) 
                     (  -0.00000   0.00000   ) 
                     (  -0.27641   0.00000   ) 
                     (  -0.48564   0.00000   ) 
                     (  -0.00000   0.00000   ) 
                     (  -0.27641   0.00000   ) 
                     (  -0.48564   0.00000   ) 
  autoval = -.6875E-02
     Irreps are as follows:

                     mode #   7
                     (   0.00000   0.00000   ) 
                     (   0.00000   0.00000   ) 
                     (   0.00000   0.00000   ) 
                     (   0.00000   0.00000   ) 
                     (   0.00000   0.00000   ) 
                     (   0.00000   0.00000   ) 
                     (   0.00000   0.00000   ) 
                     (  -0.35355   0.00000   ) 
                     (   0.35355   0.00000   ) 
                     (  -0.00000   0.00000   ) 
                     (   0.35355   0.00000   ) 
                     (  -0.35355   0.00000   ) 
                     (   0.00000   0.00000   ) 
                     (  -0.35355   0.00000   ) 
                     (  -0.35355   0.00000   ) 
                     (  -0.00000   0.00000   ) 
                     (   0.35355   0.00000   ) 
                     (   0.35355   0.00000   ) 
  autoval = 0.8450E-03
     Irreps are as follows:

                     mode #   8
                     (   0.00000   0.00000   ) 
                     (   0.00000   0.00000   ) 
                     (   0.00000   0.00000   ) 
                     (   0.00000   0.00000   ) 
                     (   0.00000   0.00000   ) 
                     (   0.00000   0.00000   ) 
                     (  -0.00000   0.00000   ) 
                     (  -0.35355   0.00000   ) 
                     (   0.35355   0.00000   ) 
                     (  -0.00000   0.00000   ) 
                     (   0.35355   0.00000   ) 
                     (  -0.35355   0.00000   ) 
                     (   0.00000   0.00000   ) 
                     (   0.35355   0.00000   ) 
                     (   0.35355   0.00000   ) 
                     (   0.00000   0.00000   ) 
                     (  -0.35355   0.00000   ) 
                     (  -0.35355   0.00000   ) 
  autoval = 0.4447E-02
     Irreps are as follows:

                     mode #   9
                     (   0.00000   0.00000   ) 
                     (   0.00000   0.00000   ) 
                     (   0.00000   0.00000   ) 
                     (   0.00000   0.00000   ) 
                     (   0.00000   0.00000   ) 
                     (   0.00000   0.00000   ) 
                     (   0.00000   0.00000   ) 
                     (  -0.35355   0.00000   ) 
                     (  -0.35355   0.00000   ) 
                     (   0.00000   0.00000   ) 
                     (   0.35355   0.00000   ) 
                     (   0.35355   0.00000   ) 
                     (  -0.00000   0.00000   ) 
                     (   0.35355   0.00000   ) 
                     (  -0.35355   0.00000   ) 
                     (  -0.00000   0.00000   ) 
                     (  -0.35355   0.00000   ) 
                     (   0.35355   0.00000   ) 
  autoval = 0.6031E-02
     Irreps are as follows:

                     mode #  10
                     (   0.00000   0.00000   ) 
                     (   0.00000   0.00000   ) 
                     (   0.00000   0.00000   ) 
                     (   0.00000   0.00000   ) 
                     (   0.00000   0.00000   ) 
                     (   0.00000   0.00000   ) 
                     (  -0.00000   0.00000   ) 
                     (  -0.47258   0.00000   ) 
                     (  -0.45814   0.00000   ) 
                     (   0.00000   0.00000   ) 
                     (  -0.47258   0.00000   ) 
                     (  -0.45814   0.00000   ) 
                     (  -0.00000   0.00000   ) 
                     (  -0.20026   0.00000   ) 
                     (  -0.16329   0.00000   ) 
                     (   0.00000   0.00000   ) 
                     (  -0.20026   0.00000   ) 
                     (  -0.16329   0.00000   ) 
  autoval = 0.6031E-02
     Irreps are as follows:

                     mode #  11
                     (   0.00000   0.00000   ) 
                     (   0.00000   0.00000   ) 
                     (   0.00000   0.00000   ) 
                     (   0.00000   0.00000   ) 
                     (   0.00000   0.00000   ) 
                     (   0.00000   0.00000   ) 
                     (   0.00000   0.00000   ) 
                     (  -0.16329   0.00000   ) 
                     (   0.20026   0.00000   ) 
                     (  -0.00000   0.00000   ) 
                     (  -0.16329   0.00000   ) 
                     (   0.20026   0.00000   ) 
                     (  -0.00000   0.00000   ) 
                     (  -0.45814   0.00000   ) 
                     (   0.47258   0.00000   ) 
                     (   0.00000   0.00000   ) 
                     (  -0.45814   0.00000   ) 
                     (   0.47258   0.00000   ) 
  autoval = 0.1392E-01
     Irreps are as follows:

                     mode #  12
                     (   0.00000   0.00000   ) 
                     (   0.00000   0.00000   ) 
                     (   0.00000   0.00000   ) 
                     (   0.00000   0.00000   ) 
                     (   0.00000   0.00000   ) 
                     (   0.00000   0.00000   ) 
                     (  -0.31895   0.00000   ) 
                     (   0.00000   0.00000   ) 
                     (   0.00000   0.00000   ) 
                     (   0.31895   0.00000   ) 
                     (   0.00000   0.00000   ) 
                     (   0.00000   0.00000   ) 
                     (   0.63109   0.00000   ) 
                     (  -0.00000   0.00000   ) 
                     (   0.00000   0.00000   ) 
                     (  -0.63109   0.00000   ) 
                     (  -0.00000   0.00000   ) 
                     (   0.00000   0.00000   ) 
  autoval = 0.1392E-01
     Irreps are as follows:

                     mode #  13
                     (   0.00000   0.00000   ) 
                     (   0.00000   0.00000   ) 
                     (   0.00000   0.00000   ) 
                     (   0.00000   0.00000   ) 
                     (   0.00000   0.00000   ) 
                     (   0.00000   0.00000   ) 
                     (  -0.63109   0.00000   ) 
                     (   0.00000   0.00000   ) 
                     (   0.00000   0.00000   ) 
                     (   0.63109   0.00000   ) 
                     (   0.00000   0.00000   ) 
                     (   0.00000   0.00000   ) 
                     (  -0.31895   0.00000   ) 
                     (  -0.00000   0.00000   ) 
                     (   0.00000   0.00000   ) 
                     (   0.31895   0.00000   ) 
                     (  -0.00000   0.00000   ) 
                     (   0.00000   0.00000   ) 
  autoval = 0.5879E-01
     Irreps are as follows:

                     mode #  14
                     (  -0.70711   0.00000   ) 
                     (   0.00000   0.00000   ) 
                     (   0.00000   0.00000   ) 
                     (   0.70711   0.00000   ) 
                     (   0.00000   0.00000   ) 
                     (   0.00000   0.00000   ) 
                     (   0.00000   0.00000   ) 
                     (   0.00000   0.00000   ) 
                     (   0.00000   0.00000   ) 
                     (   0.00000   0.00000   ) 
                     (   0.00000   0.00000   ) 
                     (   0.00000   0.00000   ) 
                     (   0.00000   0.00000   ) 
                     (   0.00000   0.00000   ) 
                     (   0.00000   0.00000   ) 
                     (   0.00000   0.00000   ) 
                     (   0.00000   0.00000   ) 
                     (   0.00000   0.00000   ) 
  autoval = 0.6892E-01
     Irreps are as follows:

                     mode #  15
                     (   0.00000   0.00000   ) 
                     (   0.00000   0.00000   ) 
                     (   0.00000   0.00000   ) 
                     (   0.00000   0.00000   ) 
                     (   0.00000   0.00000   ) 
                     (   0.00000   0.00000   ) 
                     (   0.00000   0.00000   ) 
                     (  -0.35355   0.00000   ) 
                     (  -0.35355   0.00000   ) 
                     (   0.00000   0.00000   ) 
                     (   0.35355   0.00000   ) 
                     (   0.35355   0.00000   ) 
                     (   0.00000   0.00000   ) 
                     (  -0.35355   0.00000   ) 
                     (   0.35355   0.00000   ) 
                     (   0.00000   0.00000   ) 
                     (   0.35355   0.00000   ) 
                     (  -0.35355   0.00000   ) 
  autoval = 0.9817E-01
     Irreps are as follows:

                     mode #  16
                     (  -0.00000   0.00000   ) 
                     (  -0.00000   0.00000   ) 
                     (  -0.15377   0.00000   ) 
                     (   0.00000   0.00000   ) 
                     (   0.69018   0.00000   ) 
                     (  -0.70711   0.00000   ) 
                     (   0.00000   0.00000   ) 
                     (   0.00000   0.00000   ) 
                     (   0.00000   0.00000   ) 
                     (   0.00000   0.00000   ) 
                     (   0.00000   0.00000   ) 
                     (   0.00000   0.00000   ) 
                     (   0.00000   0.00000   ) 
                     (   0.00000   0.00000   ) 
                     (   0.00000   0.00000   ) 
                     (   0.00000   0.00000   ) 
                     (   0.00000   0.00000   ) 
                     (   0.00000   0.00000   ) 
  autoval = 0.9817E-01
     Irreps are as follows:

                     mode #  17
                     (  -0.00000   0.00000   ) 
                     (  -0.70711   0.00000   ) 
                     (  -0.69018   0.00000   ) 
                     (   0.00000   0.00000   ) 
                     (  -0.15377   0.00000   ) 
                     (   0.00000   0.00000   ) 
                     (   0.00000   0.00000   ) 
                     (   0.00000   0.00000   ) 
                     (   0.00000   0.00000   ) 
                     (   0.00000   0.00000   ) 
                     (   0.00000   0.00000   ) 
                     (   0.00000   0.00000   ) 
                     (   0.00000   0.00000   ) 
                     (   0.00000   0.00000   ) 
                     (   0.00000   0.00000   ) 
                     (   0.00000   0.00000   ) 
                     (   0.00000   0.00000   ) 
                     (   0.00000   0.00000   ) 
  autoval = 0.2208E+00
     Irreps are as follows:

                     mode #  18
                     (  -0.70711   0.00000   ) 
                     (   0.00000   0.00000   ) 
                     (   0.00000   0.00000   ) 
                     (  -0.70711   0.00000   ) 
                     (   0.00000   0.00000   ) 
                     (   0.00000   0.00000   ) 
                     (   0.00000   0.00000   ) 
                     (   0.00000   0.00000   ) 
                     (   0.00000   0.00000   ) 
                     (   0.00000   0.00000   ) 
                     (   0.00000   0.00000   ) 
                     (   0.00000   0.00000   ) 
                     (   0.00000   0.00000   ) 
                     (   0.00000   0.00000   ) 
                     (   0.00000   0.00000   ) 
                     (   0.00000   0.00000   ) 
                     (   0.00000   0.00000   ) 
                     (   0.00000   0.00000   ) 

     --                                                                         

     bravais-lattice index     =            0
     lattice parameter (a_0)   =       1.8897  a.u.
     unit-cell volume          =     409.8602 (a.u.)^3
     number of atoms/cell      =            6
     number of atomic types    =            2
     kinetic-energy cut-off    =      90.0000  Ry
     charge density cut-off    =     360.0000  Ry
     Exchange-correlation= PZ
                           (   1   1   0   0   0   0   0)


     celldm(1)=    1.88973  celldm(2)=    0.00000  celldm(3)=    0.00000
     celldm(4)=    0.00000  celldm(5)=    0.00000  celldm(6)=    0.00000

     crystal axes: (cart. coord. in units of a_0)
               a(1) = (  2.9784  0.0000  0.0000 )  
               a(2) = (  0.0000  4.5158  0.0000 )  
               a(3) = (  0.0000  0.0000  4.5158 )  

     reciprocal axes: (cart. coord. in units 2 pi/a_0)
               b(1) = (  0.3358  0.0000  0.0000 )  
               b(2) = (  0.0000  0.2214  0.0000 )  
               b(3) = (  0.0000  0.0000  0.2214 )  


     Atoms inside the unit cell: 

   Cartesian axes

     site n.  atom      mass           positions (a_0 units)
        1        Ge  72.6300   tau( 1) = (    1.48918    2.25788    2.25788  )
        2        Ge  72.6300   tau( 2) = (    0.00000    0.00000    0.00000  )
        3        O   15.9990   tau( 3) = (    1.48918    0.87586    0.87586  )
        4        O   15.9990   tau( 4) = (    1.48918    3.63990    3.63990  )
        5        O   15.9990   tau( 5) = (    0.00000    1.38202    3.13374  )
        6        O   15.9990   tau( 6) = (    0.00000    3.13374    1.38202  )
 
     17 Sym.Ops. (with q -> -q+G )

                                    s                        frac. trans.

      isym =  1     identity                                     

 cryst.   s( 1) = (     1     0     0 )
                  (     0          1          0      )
                  (     0          0          1      )

 cart.   s( 1) = (  1.0000000  0.0000000  0.0000000 )
                  (  0.0000000  1.0000000  0.0000000 )
                  (  0.0000000  0.0000000  1.0000000 )


      isym =  2     180 deg rotation - cart. axis [0,0,1]        

 cryst.   s( 2) = (    -1     0     0 )    f =( -0.5000000 )
                  (     0         -1          0      )       (  0.5000000 )
                  (     0          0          1      )       (  0.5000000 )

 cart.   s( 2) = ( -1.0000000  0.0000000  0.0000000 )    f =( -1.4891805 )
                  (  0.0000000 -1.0000000  0.0000000 )       (  2.2578802 )
                  (  0.0000000  0.0000000  1.0000000 )       (  2.2578802 )


      isym =  3     180 deg rotation - cart. axis [0,1,0]        

 cryst.   s( 3) = (    -1     0     0 )    f =( -0.5000000 )
                  (     0          1          0      )       (  0.5000000 )
                  (     0          0         -1      )       (  0.5000000 )

 cart.   s( 3) = ( -1.0000000  0.0000000  0.0000000 )    f =( -1.4891805 )
                  (  0.0000000  1.0000000  0.0000000 )       (  2.2578802 )
                  (  0.0000000  0.0000000 -1.0000000 )       (  2.2578802 )


      isym =  4     180 deg rotation - cart. axis [1,0,0]        

 cryst.   s( 4) = (     1     0     0 )
                  (     0         -1          0      )
                  (     0          0         -1      )

 cart.   s( 4) = (  1.0000000  0.0000000  0.0000000 )
                  (  0.0000000 -1.0000000  0.0000000 )
                  (  0.0000000  0.0000000 -1.0000000 )


      isym =  5     180 deg rotation - cart. axis [0,1,1]        

 cryst.   s( 5) = (    -1     0     0 )
                  (     0          0          1      )
                  (     0          1          0      )

 cart.   s( 5) = ( -1.0000000  0.0000000  0.0000000 )
                  (  0.0000000  0.0000000  1.0000000 )
                  (  0.0000000  1.0000000  0.0000000 )


      isym =  6     180 deg rotation - cart. axis [0,1,-1]       

 cryst.   s( 6) = (    -1     0     0 )
                  (     0          0         -1      )
                  (     0         -1          0      )

 cart.   s( 6) = ( -1.0000000  0.0000000  0.0000000 )
                  (  0.0000000  0.0000000 -1.0000000 )
                  (  0.0000000 -1.0000000  0.0000000 )


      isym =  7     90 deg rotation - cart. axis [-1,0,0]        

 cryst.   s( 7) = (     1     0     0 )    f =( -0.5000000 )
                  (     0          0         -1      )       (  0.5000000 )
                  (     0          1          0      )       (  0.5000000 )

 cart.   s( 7) = (  1.0000000  0.0000000  0.0000000 )    f =( -1.4891805 )
                  (  0.0000000  0.0000000  1.0000000 )       (  2.2578802 )
                  (  0.0000000 -1.0000000  0.0000000 )       (  2.2578802 )


      isym =  8     90 deg rotation - cart. axis [1,0,0]         

 cryst.   s( 8) = (     1     0     0 )    f =( -0.5000000 )
                  (     0          0          1      )       (  0.5000000 )
                  (     0         -1          0      )       (  0.5000000 )

 cart.   s( 8) = (  1.0000000  0.0000000  0.0000000 )    f =( -1.4891805 )
                  (  0.0000000  0.0000000 -1.0000000 )       (  2.2578802 )
                  (  0.0000000  1.0000000  0.0000000 )       (  2.2578802 )


      isym =  9     inversion                                    

 cryst.   s( 9) = (    -1     0     0 )
                  (     0         -1          0      )
                  (     0          0         -1      )

 cart.   s( 9) = ( -1.0000000  0.0000000  0.0000000 )
                  (  0.0000000 -1.0000000  0.0000000 )
                  (  0.0000000  0.0000000 -1.0000000 )


      isym = 10     inv. 180 deg rotation - cart. axis [0,0,1]   

 cryst.   s(10) = (     1     0     0 )    f =( -0.5000000 )
                  (     0          1          0      )       (  0.5000000 )
                  (     0          0         -1      )       (  0.5000000 )

 cart.   s(10) = (  1.0000000  0.0000000  0.0000000 )    f =( -1.4891805 )
                  (  0.0000000  1.0000000  0.0000000 )       (  2.2578802 )
                  (  0.0000000  0.0000000 -1.0000000 )       (  2.2578802 )


      isym = 11     inv. 180 deg rotation - cart. axis [0,1,0]   

 cryst.   s(11) = (     1     0     0 )    f =( -0.5000000 )
                  (     0         -1          0      )       (  0.5000000 )
                  (     0          0          1      )       (  0.5000000 )

 cart.   s(11) = (  1.0000000  0.0000000  0.0000000 )    f =( -1.4891805 )
                  (  0.0000000 -1.0000000  0.0000000 )       (  2.2578802 )
                  (  0.0000000  0.0000000  1.0000000 )       (  2.2578802 )


      isym = 12     inv. 180 deg rotation - cart. axis [1,0,0]   

 cryst.   s(12) = (    -1     0     0 )
                  (     0          1          0      )
                  (     0          0          1      )

 cart.   s(12) = ( -1.0000000  0.0000000  0.0000000 )
                  (  0.0000000  1.0000000  0.0000000 )
                  (  0.0000000  0.0000000  1.0000000 )


      isym = 13     inv. 180 deg rotation - cart. axis [0,1,1]   

 cryst.   s(13) = (     1     0     0 )
                  (     0          0         -1      )
                  (     0         -1          0      )

 cart.   s(13) = (  1.0000000  0.0000000  0.0000000 )
                  (  0.0000000  0.0000000 -1.0000000 )
                  (  0.0000000 -1.0000000  0.0000000 )


      isym = 14     inv. 180 deg rotation - cart. axis [0,1,-1]  

 cryst.   s(14) = (     1     0     0 )
                  (     0          0          1      )
                  (     0          1          0      )

 cart.   s(14) = (  1.0000000  0.0000000  0.0000000 )
                  (  0.0000000  0.0000000  1.0000000 )
                  (  0.0000000  1.0000000  0.0000000 )


      isym = 15     inv. 90 deg rotation - cart. axis [-1,0,0]   

 cryst.   s(15) = (    -1     0     0 )    f =( -0.5000000 )
                  (     0          0          1      )       (  0.5000000 )
                  (     0         -1          0      )       (  0.5000000 )

 cart.   s(15) = ( -1.0000000  0.0000000  0.0000000 )    f =( -1.4891805 )
                  (  0.0000000  0.0000000 -1.0000000 )       (  2.2578802 )
                  (  0.0000000  1.0000000  0.0000000 )       (  2.2578802 )


      isym = 16     inv. 90 deg rotation - cart. axis [1,0,0]    

 cryst.   s(16) = (    -1     0     0 )    f =( -0.5000000 )
                  (     0          0         -1      )       (  0.5000000 )
                  (     0          1          0      )       (  0.5000000 )

 cart.   s(16) = ( -1.0000000  0.0000000  0.0000000 )    f =( -1.4891805 )
                  (  0.0000000  0.0000000  1.0000000 )       (  2.2578802 )
                  (  0.0000000 -1.0000000  0.0000000 )       (  2.2578802 )


     This transformation sends q -> -q+G

      isym = 17     identity                                     

 cryst.   s(17) = (     1     0     0 )
                  (     0          1          0      )
                  (     0          0          1      )

 cart.   s(17) = (  1.0000000  0.0000000  0.0000000 )
                  (  0.0000000  1.0000000  0.0000000 )
                  (  0.0000000  0.0000000  1.0000000 )


     G cutoff =   32.5642  (  47237 G-vectors)     FFT grid: ( 36, 54, 54)
     number of k points=   96
                       cart. coord. in units 2pi/a_0
        k(    1) = (   0.0000000   0.0000000   0.0000000), wk =   0.0208333
        k(    2) = (   0.0000000   0.0000000   0.0553617), wk =   0.0208333
        k(    3) = (   0.0000000   0.0000000   0.1107233), wk =   0.0208333
        k(    4) = (   0.0000000   0.0000000   0.1660850), wk =   0.0208333
        k(    5) = (   0.0000000   0.0553617   0.0000000), wk =   0.0208333
        k(    6) = (   0.0000000   0.0553617   0.0553617), wk =   0.0208333
        k(    7) = (   0.0000000   0.0553617   0.1107233), wk =   0.0208333
        k(    8) = (   0.0000000   0.0553617   0.1660850), wk =   0.0208333
        k(    9) = (   0.0000000   0.1107233   0.0000000), wk =   0.0208333
        k(   10) = (   0.0000000   0.1107233   0.0553617), wk =   0.0208333
        k(   11) = (   0.0000000   0.1107233   0.1107233), wk =   0.0208333
        k(   12) = (   0.0000000   0.1107233   0.1660850), wk =   0.0208333
        k(   13) = (   0.0000000   0.1660850   0.0000000), wk =   0.0208333
        k(   14) = (   0.0000000   0.1660850   0.0553617), wk =   0.0208333
        k(   15) = (   0.0000000   0.1660850   0.1107233), wk =   0.0208333
        k(   16) = (   0.0000000   0.1660850   0.1660850), wk =   0.0208333
        k(   17) = (   0.0559592   0.0000000   0.0000000), wk =   0.0208333
        k(   18) = (   0.0559592   0.0000000   0.0553617), wk =   0.0208333
        k(   19) = (   0.0559592   0.0000000   0.1107233), wk =   0.0208333
        k(   20) = (   0.0559592   0.0000000   0.1660850), wk =   0.0208333
        k(   21) = (   0.0559592   0.0553617   0.0000000), wk =   0.0208333
        k(   22) = (   0.0559592   0.0553617   0.0553617), wk =   0.0208333
        k(   23) = (   0.0559592   0.0553617   0.1107233), wk =   0.0208333
        k(   24) = (   0.0559592   0.0553617   0.1660850), wk =   0.0208333
        k(   25) = (   0.0559592   0.1107233   0.0000000), wk =   0.0208333
        k(   26) = (   0.0559592   0.1107233   0.0553617), wk =   0.0208333
        k(   27) = (   0.0559592   0.1107233   0.1107233), wk =   0.0208333
        k(   28) = (   0.0559592   0.1107233   0.1660850), wk =   0.0208333
        k(   29) = (   0.0559592   0.1660850   0.0000000), wk =   0.0208333
        k(   30) = (   0.0559592   0.1660850   0.0553617), wk =   0.0208333
        k(   31) = (   0.0559592   0.1660850   0.1107233), wk =   0.0208333
        k(   32) = (   0.0559592   0.1660850   0.1660850), wk =   0.0208333
        k(   33) = (   0.1119184   0.0000000   0.0000000), wk =   0.0208333
        k(   34) = (   0.1119184   0.0000000   0.0553617), wk =   0.0208333
        k(   35) = (   0.1119184   0.0000000   0.1107233), wk =   0.0208333
        k(   36) = (   0.1119184   0.0000000   0.1660850), wk =   0.0208333
        k(   37) = (   0.1119184   0.0553617   0.0000000), wk =   0.0208333
        k(   38) = (   0.1119184   0.0553617   0.0553617), wk =   0.0208333
        k(   39) = (   0.1119184   0.0553617   0.1107233), wk =   0.0208333
        k(   40) = (   0.1119184   0.0553617   0.1660850), wk =   0.0208333
        k(   41) = (   0.1119184   0.1107233   0.0000000), wk =   0.0208333
        k(   42) = (   0.1119184   0.1107233   0.0553617), wk =   0.0208333
        k(   43) = (   0.1119184   0.1107233   0.1107233), wk =   0.0208333
        k(   44) = (   0.1119184   0.1107233   0.1660850), wk =   0.0208333
        k(   45) = (   0.1119184   0.1660850   0.0000000), wk =   0.0208333
        k(   46) = (   0.1119184   0.1660850   0.0553617), wk =   0.0208333
        k(   47) = (   0.1119184   0.1660850   0.1107233), wk =   0.0208333
        k(   48) = (   0.1119184   0.1660850   0.1660850), wk =   0.0208333
        k(   49) = (   0.1678776   0.0000000   0.0000000), wk =   0.0208333
        k(   50) = (   0.1678776   0.0000000   0.0553617), wk =   0.0208333
        k(   51) = (   0.1678776   0.0000000   0.1107233), wk =   0.0208333
        k(   52) = (   0.1678776   0.0000000   0.1660850), wk =   0.0208333
        k(   53) = (   0.1678776   0.0553617   0.0000000), wk =   0.0208333
        k(   54) = (   0.1678776   0.0553617   0.0553617), wk =   0.0208333
        k(   55) = (   0.1678776   0.0553617   0.1107233), wk =   0.0208333
        k(   56) = (   0.1678776   0.0553617   0.1660850), wk =   0.0208333
        k(   57) = (   0.1678776   0.1107233   0.0000000), wk =   0.0208333
        k(   58) = (   0.1678776   0.1107233   0.0553617), wk =   0.0208333
        k(   59) = (   0.1678776   0.1107233   0.1107233), wk =   0.0208333
        k(   60) = (   0.1678776   0.1107233   0.1660850), wk =   0.0208333
        k(   61) = (   0.1678776   0.1660850   0.0000000), wk =   0.0208333
        k(   62) = (   0.1678776   0.1660850   0.0553617), wk =   0.0208333
        k(   63) = (   0.1678776   0.1660850   0.1107233), wk =   0.0208333
        k(   64) = (   0.1678776   0.1660850   0.1660850), wk =   0.0208333
        k(   65) = (   0.2238368   0.0000000   0.0000000), wk =   0.0208333
        k(   66) = (   0.2238368   0.0000000   0.0553617), wk =   0.0208333
        k(   67) = (   0.2238368   0.0000000   0.1107233), wk =   0.0208333
        k(   68) = (   0.2238368   0.0000000   0.1660850), wk =   0.0208333
        k(   69) = (   0.2238368   0.0553617   0.0000000), wk =   0.0208333
        k(   70) = (   0.2238368   0.0553617   0.0553617), wk =   0.0208333
        k(   71) = (   0.2238368   0.0553617   0.1107233), wk =   0.0208333
        k(   72) = (   0.2238368   0.0553617   0.1660850), wk =   0.0208333
        k(   73) = (   0.2238368   0.1107233   0.0000000), wk =   0.0208333
        k(   74) = (   0.2238368   0.1107233   0.0553617), wk =   0.0208333
        k(   75) = (   0.2238368   0.1107233   0.1107233), wk =   0.0208333
        k(   76) = (   0.2238368   0.1107233   0.1660850), wk =   0.0208333
        k(   77) = (   0.2238368   0.1660850   0.0000000), wk =   0.0208333
        k(   78) = (   0.2238368   0.1660850   0.0553617), wk =   0.0208333
        k(   79) = (   0.2238368   0.1660850   0.1107233), wk =   0.0208333
        k(   80) = (   0.2238368   0.1660850   0.1660850), wk =   0.0208333
        k(   81) = (   0.2797960   0.0000000   0.0000000), wk =   0.0208333
        k(   82) = (   0.2797960   0.0000000   0.0553617), wk =   0.0208333
        k(   83) = (   0.2797960   0.0000000   0.1107233), wk =   0.0208333
        k(   84) = (   0.2797960   0.0000000   0.1660850), wk =   0.0208333
        k(   85) = (   0.2797960   0.0553617   0.0000000), wk =   0.0208333
        k(   86) = (   0.2797960   0.0553617   0.0553617), wk =   0.0208333
        k(   87) = (   0.2797960   0.0553617   0.1107233), wk =   0.0208333
        k(   88) = (   0.2797960   0.0553617   0.1660850), wk =   0.0208333
        k(   89) = (   0.2797960   0.1107233   0.0000000), wk =   0.0208333
        k(   90) = (   0.2797960   0.1107233   0.0553617), wk =   0.0208333
        k(   91) = (   0.2797960   0.1107233   0.1107233), wk =   0.0208333
        k(   92) = (   0.2797960   0.1107233   0.1660850), wk =   0.0208333
        k(   93) = (   0.2797960   0.1660850   0.0000000), wk =   0.0208333
        k(   94) = (   0.2797960   0.1660850   0.0553617), wk =   0.0208333
        k(   95) = (   0.2797960   0.1660850   0.1107233), wk =   0.0208333
        k(   96) = (   0.2797960   0.1660850   0.1660850), wk =   0.0208333

                       cryst. coord.
        k(    1) = (   0.0000000   0.0000000   0.0000000), wk =   0.0208333
        k(    2) = (   0.0000000   0.0000000   0.2500000), wk =   0.0208333
        k(    3) = (   0.0000000   0.0000000   0.5000000), wk =   0.0208333
        k(    4) = (   0.0000000   0.0000000   0.7500000), wk =   0.0208333
        k(    5) = (   0.0000000   0.2500000   0.0000000), wk =   0.0208333
        k(    6) = (   0.0000000   0.2500000   0.2500000), wk =   0.0208333
        k(    7) = (   0.0000000   0.2500000   0.5000000), wk =   0.0208333
        k(    8) = (   0.0000000   0.2500000   0.7500000), wk =   0.0208333
        k(    9) = (   0.0000000   0.5000000   0.0000000), wk =   0.0208333
        k(   10) = (   0.0000000   0.5000000   0.2500000), wk =   0.0208333
        k(   11) = (   0.0000000   0.5000000   0.5000000), wk =   0.0208333
        k(   12) = (   0.0000000   0.5000000   0.7500000), wk =   0.0208333
        k(   13) = (   0.0000000   0.7500000   0.0000000), wk =   0.0208333
        k(   14) = (   0.0000000   0.7500000   0.2500000), wk =   0.0208333
        k(   15) = (   0.0000000   0.7500000   0.5000000), wk =   0.0208333
        k(   16) = (   0.0000000   0.7500000   0.7500000), wk =   0.0208333
        k(   17) = (   0.1666667   0.0000000   0.0000000), wk =   0.0208333
        k(   18) = (   0.1666667   0.0000000   0.2500000), wk =   0.0208333
        k(   19) = (   0.1666667   0.0000000   0.5000000), wk =   0.0208333
        k(   20) = (   0.1666667   0.0000000   0.7500000), wk =   0.0208333
        k(   21) = (   0.1666667   0.2500000   0.0000000), wk =   0.0208333
        k(   22) = (   0.1666667   0.2500000   0.2500000), wk =   0.0208333
        k(   23) = (   0.1666667   0.2500000   0.5000000), wk =   0.0208333
        k(   24) = (   0.1666667   0.2500000   0.7500000), wk =   0.0208333
        k(   25) = (   0.1666667   0.5000000   0.0000000), wk =   0.0208333
        k(   26) = (   0.1666667   0.5000000   0.2500000), wk =   0.0208333
        k(   27) = (   0.1666667   0.5000000   0.5000000), wk =   0.0208333
        k(   28) = (   0.1666667   0.5000000   0.7500000), wk =   0.0208333
        k(   29) = (   0.1666667   0.7500000   0.0000000), wk =   0.0208333
        k(   30) = (   0.1666667   0.7500000   0.2500000), wk =   0.0208333
        k(   31) = (   0.1666667   0.7500000   0.5000000), wk =   0.0208333
        k(   32) = (   0.1666667   0.7500000   0.7500000), wk =   0.0208333
        k(   33) = (   0.3333333   0.0000000   0.0000000), wk =   0.0208333
        k(   34) = (   0.3333333   0.0000000   0.2500000), wk =   0.0208333
        k(   35) = (   0.3333333   0.0000000   0.5000000), wk =   0.0208333
        k(   36) = (   0.3333333   0.0000000   0.7500000), wk =   0.0208333
        k(   37) = (   0.3333333   0.2500000   0.0000000), wk =   0.0208333
        k(   38) = (   0.3333333   0.2500000   0.2500000), wk =   0.0208333
        k(   39) = (   0.3333333   0.2500000   0.5000000), wk =   0.0208333
        k(   40) = (   0.3333333   0.2500000   0.7500000), wk =   0.0208333
        k(   41) = (   0.3333333   0.5000000   0.0000000), wk =   0.0208333
        k(   42) = (   0.3333333   0.5000000   0.2500000), wk =   0.0208333
        k(   43) = (   0.3333333   0.5000000   0.5000000), wk =   0.0208333
        k(   44) = (   0.3333333   0.5000000   0.7500000), wk =   0.0208333
        k(   45) = (   0.3333333   0.7500000   0.0000000), wk =   0.0208333
        k(   46) = (   0.3333333   0.7500000   0.2500000), wk =   0.0208333
        k(   47) = (   0.3333333   0.7500000   0.5000000), wk =   0.0208333
        k(   48) = (   0.3333333   0.7500000   0.7500000), wk =   0.0208333
        k(   49) = (   0.5000000   0.0000000   0.0000000), wk =   0.0208333
        k(   50) = (   0.5000000   0.0000000   0.2500000), wk =   0.0208333
        k(   51) = (   0.5000000   0.0000000   0.5000000), wk =   0.0208333
        k(   52) = (   0.5000000   0.0000000   0.7500000), wk =   0.0208333
        k(   53) = (   0.5000000   0.2500000   0.0000000), wk =   0.0208333
        k(   54) = (   0.5000000   0.2500000   0.2500000), wk =   0.0208333
        k(   55) = (   0.5000000   0.2500000   0.5000000), wk =   0.0208333
        k(   56) = (   0.5000000   0.2500000   0.7500000), wk =   0.0208333
        k(   57) = (   0.5000000   0.5000000   0.0000000), wk =   0.0208333
        k(   58) = (   0.5000000   0.5000000   0.2500000), wk =   0.0208333
        k(   59) = (   0.5000000   0.5000000   0.5000000), wk =   0.0208333
        k(   60) = (   0.5000000   0.5000000   0.7500000), wk =   0.0208333
        k(   61) = (   0.5000000   0.7500000   0.0000000), wk =   0.0208333
        k(   62) = (   0.5000000   0.7500000   0.2500000), wk =   0.0208333
        k(   63) = (   0.5000000   0.7500000   0.5000000), wk =   0.0208333
        k(   64) = (   0.5000000   0.7500000   0.7500000), wk =   0.0208333
        k(   65) = (   0.6666667   0.0000000   0.0000000), wk =   0.0208333
        k(   66) = (   0.6666667   0.0000000   0.2500000), wk =   0.0208333
        k(   67) = (   0.6666667   0.0000000   0.5000000), wk =   0.0208333
        k(   68) = (   0.6666667   0.0000000   0.7500000), wk =   0.0208333
        k(   69) = (   0.6666667   0.2500000   0.0000000), wk =   0.0208333
        k(   70) = (   0.6666667   0.2500000   0.2500000), wk =   0.0208333
        k(   71) = (   0.6666667   0.2500000   0.5000000), wk =   0.0208333
        k(   72) = (   0.6666667   0.2500000   0.7500000), wk =   0.0208333
        k(   73) = (   0.6666667   0.5000000   0.0000000), wk =   0.0208333
        k(   74) = (   0.6666667   0.5000000   0.2500000), wk =   0.0208333
        k(   75) = (   0.6666667   0.5000000   0.5000000), wk =   0.0208333
        k(   76) = (   0.6666667   0.5000000   0.7500000), wk =   0.0208333
        k(   77) = (   0.6666667   0.7500000   0.0000000), wk =   0.0208333
        k(   78) = (   0.6666667   0.7500000   0.2500000), wk =   0.0208333
        k(   79) = (   0.6666667   0.7500000   0.5000000), wk =   0.0208333
        k(   80) = (   0.6666667   0.7500000   0.7500000), wk =   0.0208333
        k(   81) = (   0.8333333   0.0000000   0.0000000), wk =   0.0208333
        k(   82) = (   0.8333333   0.0000000   0.2500000), wk =   0.0208333
        k(   83) = (   0.8333333   0.0000000   0.5000000), wk =   0.0208333
        k(   84) = (   0.8333333   0.0000000   0.7500000), wk =   0.0208333
        k(   85) = (   0.8333333   0.2500000   0.0000000), wk =   0.0208333
        k(   86) = (   0.8333333   0.2500000   0.2500000), wk =   0.0208333
        k(   87) = (   0.8333333   0.2500000   0.5000000), wk =   0.0208333
        k(   88) = (   0.8333333   0.2500000   0.7500000), wk =   0.0208333
        k(   89) = (   0.8333333   0.5000000   0.0000000), wk =   0.0208333
        k(   90) = (   0.8333333   0.5000000   0.2500000), wk =   0.0208333
        k(   91) = (   0.8333333   0.5000000   0.5000000), wk =   0.0208333
        k(   92) = (   0.8333333   0.5000000   0.7500000), wk =   0.0208333
        k(   93) = (   0.8333333   0.7500000   0.0000000), wk =   0.0208333
        k(   94) = (   0.8333333   0.7500000   0.2500000), wk =   0.0208333
        k(   95) = (   0.8333333   0.7500000   0.5000000), wk =   0.0208333
        k(   96) = (   0.8333333   0.7500000   0.7500000), wk =   0.0208333

     PseudoPot. # 1 for Ge read from file:
     ./Ge_LDA.cpi.UPF
     MD5 check sum: a2c975c6ddefcba2f081466d15d1a466
     Pseudo is Norm-conserving + core correction, Zval =  4.0
     Generated by new atomic code, or converted to UPF format
     Using radial grid of 1140 points,  2 beta functions with: 
                l(1) =   0
                l(2) =   1

     PseudoPot. # 2 for O  read from file:
     ./o.cpi.UPF
     MD5 check sum: ff77659b6e8e368c3b0a408638a7b2d3
     Pseudo is Norm-conserving, Zval =  6.0
     Generated by new atomic code, or converted to UPF format
     Using radial grid of  473 points,  2 beta functions with: 
                l(1) =   0
                l(2) =   1
     EPW          :      2.17s CPU      3.77s WALL

     EPW          :      4.02s CPU      5.62s WALL

     -------------------------------------------------------------------
     Wannierization on  6 x  4 x  4 electronic grid
     -------------------------------------------------------------------
 
     Spin CASE ( default = unpolarized )
 
     Initializing Wannier90
 
 
     Initial Wannier projections
 
     (   0.50000   0.50000   0.50000) :  l =   0 mr =   1
     (   0.50000   0.50000   0.50000) :  l =   1 mr =   1
     (   0.50000   0.50000   0.50000) :  l =   1 mr =   2
     (   0.50000   0.50000   0.50000) :  l =   1 mr =   3
     (   0.00000   0.00000   0.00000) :  l =   0 mr =   1
     (   0.00000   0.00000   0.00000) :  l =   1 mr =   1
     (   0.00000   0.00000   0.00000) :  l =   1 mr =   2
     (   0.00000   0.00000   0.00000) :  l =   1 mr =   3
     (   0.50000   0.19396   0.19396) :  l =   0 mr =   1
     (   0.50000   0.19396   0.19396) :  l =   1 mr =   1
     (   0.50000   0.19396   0.19396) :  l =   1 mr =   2
     (   0.50000   0.19396   0.19396) :  l =   1 mr =   3
     (   0.50000   0.80604   0.80604) :  l =   0 mr =   1
     (   0.50000   0.80604   0.80604) :  l =   1 mr =   1
     (   0.50000   0.80604   0.80604) :  l =   1 mr =   2
     (   0.50000   0.80604   0.80604) :  l =   1 mr =   3
     (   0.00000   0.30604   0.69396) :  l =   0 mr =   1
     (   0.00000   0.30604   0.69396) :  l =   1 mr =   1
     (   0.00000   0.30604   0.69396) :  l =   1 mr =   2
     (   0.00000   0.30604   0.69396) :  l =   1 mr =   3
     (   0.00000   0.69396   0.30604) :  l =   0 mr =   1
     (   0.00000   0.69396   0.30604) :  l =   1 mr =   1
     (   0.00000   0.69396   0.30604) :  l =   1 mr =   2
     (   0.00000   0.69396   0.30604) :  l =   1 mr =   3

      - Number of bands is ( 80)
      - Number of total bands is ( 80)
      - Number of excluded bands is (  0)
      - Number of wannier functions is ( 24)
      - All guiding functions are given 
 
  Reading data about k-point neighbours 
 
      - All neighbours are found 
 
     AMN
      k points =    96 in   96 pools
            1 of    1 on ionode
 
     AMN calculated
 
     MMN
      k points =    96 in   96 pools
            1 of    1 on ionode
     MMN calculated
 
     Running Wannier90
     Reading external electronic eigenvalues (   80,   96)
 
     Wannier Function centers (cartesian, alat) and spreads (ang):
 
     (   1.48463   2.22724   2.21873) :   1.17193
     (   1.48602   2.25812   2.30477) :   2.61118
     (   1.49065   2.26633   2.23221) :   8.68075
     (   1.48769   2.29690   2.25547) :   2.58607
     (  -0.00956  -0.05226  -0.05117) :   1.18364
     (  -0.00133  -0.00167   0.05500) :   2.63513
     (   0.09250  -0.01586  -0.04677) :  11.11085
     (   0.00080   0.06167   0.00238) :   2.61502
     (   1.48900   0.89309   0.89375) :   0.41950
     (   1.48919   0.86032   0.82159) :   0.84686
     (   1.49002   0.88361   0.88338) :   0.78578
     (   1.48976   0.82181   0.86003) :   0.84244
     (   1.48768   3.62019   3.62077) :   0.41957
     (   1.48865   3.65539   3.69703) :   0.84714
     (   1.49138   3.63217   3.63196) :   0.78974
     (   1.48856   3.69830   3.65531) :   0.84258
     (  -0.00068   1.36408   3.15342) :   0.42142
     (   0.00002   1.39856   3.08183) :   0.86765
     (   0.00109   1.37275   3.14123) :   0.90031
     (   0.00055   1.42997   3.11706) :   0.86738
     (  -0.00119   3.15370   1.36382) :   0.42181
     (   0.00061   3.11671   1.43013) :   0.86921
     (   0.00274   3.14263   1.37174) :   0.89173
     (   0.00079   3.08171   1.39887) :   0.86651
 
     -------------------------------------------------------------------
     WANNIER      :    350.57s CPU    389.26s WALL (       1 calls)
     -------------------------------------------------------------------
     Reading external electronic eigenvalues (   80,   96)

     Calculating kgmap

     Progress kgmap: ########################################
     kmaps        :      0.74s CPU      2.23s WALL (       1 calls)
     Estimated size of gmap: ngxx = 8460
     Symmetries of Bravais lattice:  16
     Symmetries of crystal:          16


     ===================================================================
     irreducible q point #    1
     ===================================================================

     Symmetries of small group of q: 16
          in addition sym. q -> -q+G:
 
     Number of q in the star =    1
     List of q in the star:
          1   0.000000000   0.000000000   0.000000000
     Imposing acoustic sum rule on the dynamical matrix
     Read dielectric tensor and effective charges
     Frequencies of the matrix for the current q in the star (cm^-1)
    -0.04504    -0.04504     0.00000    98.11378   193.56122   252.36263
   252.36263   363.48609   363.48609   377.17242   535.34693   537.11180
   537.11180   655.20670   655.94139   655.94139   700.19750   818.83304
 
        q(    1 ) = (   0.0000000   0.0000000   0.0000000 )
                                    s                        frac. trans.

      isym =  1     identity                                     

 cryst.   s( 1) = (     1          0          0      )
                  (     0          1          0      )
                  (     0          0          1      )

 cart.    s( 1) = (  1.0000000  0.0000000  0.0000000 )
                  (  0.0000000  1.0000000  0.0000000 )
                  (  0.0000000  0.0000000  1.0000000 )


      isym =  2     inv. 180 deg rotation - cart. axis [1,0,0]   

 cryst.   s( 2) = (    -1          0          0      )
                  (     0          1          0      )
                  (     0          0          1      )

 cart.    s( 2) = ( -1.0000000  0.0000000  0.0000000 )
                  (  0.0000000  1.0000000  0.0000000 )
                  (  0.0000000  0.0000000  1.0000000 )


      isym =  3     inv. 180 deg rotation - cart. axis [0,0,1]   

 cryst.   s( 3) = (     1          0          0      )    f =( -0.5000000 )
                  (     0          1          0      )       (  0.5000000 )
                  (     0          0         -1      )       (  0.5000000 )

 cart.    s( 3) = (  1.0000000  0.0000000  0.0000000 )    f =( -1.4891805 )
                  (  0.0000000  1.0000000  0.0000000 )       (  2.2578802 )
                  (  0.0000000  0.0000000 -1.0000000 )       (  2.2578802 )


      isym =  4     180 deg rotation - cart. axis [0,1,0]        

 cryst.   s( 4) = (    -1          0          0      )    f =( -0.5000000 )
                  (     0          1          0      )       (  0.5000000 )
                  (     0          0         -1      )       (  0.5000000 )

 cart.    s( 4) = ( -1.0000000  0.0000000  0.0000000 )    f =( -1.4891805 )
                  (  0.0000000  1.0000000  0.0000000 )       (  2.2578802 )
                  (  0.0000000  0.0000000 -1.0000000 )       (  2.2578802 )


      isym =  5     180 deg rotation - cart. axis [0,1,1]        

 cryst.   s( 5) = (    -1          0          0      )
                  (     0          0          1      )
                  (     0          1          0      )

 cart.    s( 5) = ( -1.0000000  0.0000000  0.0000000 )
                  (  0.0000000  0.0000000  1.0000000 )
                  (  0.0000000  1.0000000  0.0000000 )


      isym =  6     inversion                                    

 cryst.   s( 6) = (    -1          0          0      )
                  (     0         -1          0      )
                  (     0          0         -1      )

 cart.    s( 6) = ( -1.0000000  0.0000000  0.0000000 )
                  (  0.0000000 -1.0000000  0.0000000 )
                  (  0.0000000  0.0000000 -1.0000000 )


      isym =  7     180 deg rotation - cart. axis [1,0,0]        

 cryst.   s( 7) = (     1          0          0      )
                  (     0         -1          0      )
                  (     0          0         -1      )

 cart.    s( 7) = (  1.0000000  0.0000000  0.0000000 )
                  (  0.0000000 -1.0000000  0.0000000 )
                  (  0.0000000  0.0000000 -1.0000000 )


      isym =  8     inv. 180 deg rotation - cart. axis [0,1,-1]  

 cryst.   s( 8) = (     1          0          0      )
                  (     0          0          1      )
                  (     0          1          0      )

 cart.    s( 8) = (  1.0000000  0.0000000  0.0000000 )
                  (  0.0000000  0.0000000  1.0000000 )
                  (  0.0000000  1.0000000  0.0000000 )


      isym =  9      90 deg rotation - cart. axis [-1,0,0]       

 cryst.   s( 9) = (     1          0          0      )    f =( -0.5000000 )
                  (     0          0         -1      )       (  0.5000000 )
                  (     0          1          0      )       (  0.5000000 )

 cart.    s( 9) = (  1.0000000  0.0000000  0.0000000 )    f =( -1.4891805 )
                  (  0.0000000  0.0000000  1.0000000 )       (  2.2578802 )
                  (  0.0000000 -1.0000000  0.0000000 )       (  2.2578802 )


      isym = 10     180 deg rotation - cart. axis [0,1,-1]       

 cryst.   s(10) = (    -1          0          0      )
                  (     0          0         -1      )
                  (     0         -1          0      )

 cart.    s(10) = ( -1.0000000  0.0000000  0.0000000 )
                  (  0.0000000  0.0000000 -1.0000000 )
                  (  0.0000000 -1.0000000  0.0000000 )


      isym = 11     inv. 180 deg rotation - cart. axis [0,1,0]   

 cryst.   s(11) = (     1          0          0      )    f =( -0.5000000 )
                  (     0         -1          0      )       (  0.5000000 )
                  (     0          0          1      )       (  0.5000000 )

 cart.    s(11) = (  1.0000000  0.0000000  0.0000000 )    f =( -1.4891805 )
                  (  0.0000000 -1.0000000  0.0000000 )       (  2.2578802 )
                  (  0.0000000  0.0000000  1.0000000 )       (  2.2578802 )


      isym = 12      90 deg rotation - cart. axis [1,0,0]        

 cryst.   s(12) = (     1          0          0      )    f =( -0.5000000 )
                  (     0          0          1      )       (  0.5000000 )
                  (     0         -1          0      )       (  0.5000000 )

 cart.    s(12) = (  1.0000000  0.0000000  0.0000000 )    f =( -1.4891805 )
                  (  0.0000000  0.0000000 -1.0000000 )       (  2.2578802 )
                  (  0.0000000  1.0000000  0.0000000 )       (  2.2578802 )


      isym = 13     inv. 180 deg rotation - cart. axis [0,1,1]   

 cryst.   s(13) = (     1          0          0      )
                  (     0          0         -1      )
                  (     0         -1          0      )

 cart.    s(13) = (  1.0000000  0.0000000  0.0000000 )
                  (  0.0000000  0.0000000 -1.0000000 )
                  (  0.0000000 -1.0000000  0.0000000 )


      isym = 14     180 deg rotation - cart. axis [0,0,1]        

 cryst.   s(14) = (    -1          0          0      )    f =( -0.5000000 )
                  (     0         -1          0      )       (  0.5000000 )
                  (     0          0          1      )       (  0.5000000 )

 cart.    s(14) = ( -1.0000000  0.0000000  0.0000000 )    f =( -1.4891805 )
                  (  0.0000000 -1.0000000  0.0000000 )       (  2.2578802 )
                  (  0.0000000  0.0000000  1.0000000 )       (  2.2578802 )


      isym = 15     inv.  90 deg rotation - cart. axis [-1,0,0]  

 cryst.   s(15) = (    -1          0          0      )    f =( -0.5000000 )
                  (     0          0          1      )       (  0.5000000 )
                  (     0         -1          0      )       (  0.5000000 )

 cart.    s(15) = ( -1.0000000  0.0000000  0.0000000 )    f =( -1.4891805 )
                  (  0.0000000  0.0000000 -1.0000000 )       (  2.2578802 )
                  (  0.0000000  1.0000000  0.0000000 )       (  2.2578802 )


      isym = 16     inv.  90 deg rotation - cart. axis [1,0,0]   

 cryst.   s(16) = (    -1          0          0      )    f =( -0.5000000 )
                  (     0          0         -1      )       (  0.5000000 )
                  (     0          1          0      )       (  0.5000000 )

 cart.    s(16) = ( -1.0000000  0.0000000  0.0000000 )    f =( -1.4891805 )
                  (  0.0000000  0.0000000  1.0000000 )       (  2.2578802 )
                  (  0.0000000 -1.0000000  0.0000000 )       (  2.2578802 )

 iq, i, isym, nog, non_symmorphic
    1    1    1  T  F
    1    2    2  T  F
    1    3    3  T  T
    1    4    4  T  T
    1    5    5  T  F
    1    6    6  T  F
    1    7    7  T  F
    1    8    8  T  F
    1    9    9  T  T
    1   10   10  T  F
    1   11   11  T  T
    1   12   12  T  T
    1   13   13  T  F
    1   14   14  T  T
    1   15   15  T  T
    1   16   16  T  T
     Frequencies of the matrix for the first q in the star (cm^{-1})
    -0.04504    -0.04504     0.00000    98.11378   193.56122   252.36263
   252.36263   363.48609   363.48609   377.17242   535.34693   537.11180
   537.11180   655.20670   655.94139   655.94139   700.19750   818.83304
     Frequencies of the matrix for the first q in the star (meV)
    -0.00558    -0.00558    -0.00000    12.16456    23.99853    31.28898
    31.28898    45.06653    45.06653    46.76342    66.37456    66.59338
    66.59338    81.23528    81.32637    81.32637    86.81343   101.52236
   0.0000000000   0.0000000000
   0.0000000000   0.0000000000
   0.0000000000   0.0000000000
   0.0000000000   0.0000000000
   0.0000000000   0.0000000000
   0.0000000000   0.0000000000
  -0.0000000000   0.0000000000
   0.0000000000   0.0000000000
   0.0000000000   0.0000000000
  -0.0000000000   0.0000000000
   0.0000000000   0.0000000000
   0.0000000000   0.0000000000
  -0.0000000000   0.0000000000
   0.0000000000   0.0000000000
   0.0000000000   0.0000000000
  -0.0000000000   0.0000000000
   0.0000000000   0.0000000000
   0.0000000000   0.0000000000
   0.0000000000   0.0000000000
   0.0000000000   0.0000000000
   0.0000000000   0.0000000000
   0.0000000000   0.0000000000
   0.0000000000   0.0000000000
   0.0000000000   0.0000000000
   0.0000000000   0.0000000000
   0.0000000000   0.0000000000
   0.0000000000   0.0000000000
   0.0000000000   0.0000000000
   0.0000000000   0.0000000000
   0.0000000000   0.0000000000
   0.0000000000   0.0000000000
   0.0000000000   0.0000000000
   0.0000000000   0.0000000000
   0.0000000000   0.0000000000
   0.0000000000   0.0000000000
   0.0000000000   0.0000000000
   0.0000000000   0.0000000000
   0.0000000000   0.0000000000
   0.0000000000   0.0000000000
   0.0000000000   0.0000000000
   0.0000000000   0.0000000000
   0.0000000000   0.0000000000
   0.0000000000   0.0000000000
   0.0000000000   0.0000000000
   0.0000000000   0.0000000000
   0.0000000000   0.0000000000
   0.0000000000   0.0000000000
   0.0000000000   0.0000000000
   0.0000000000   0.0000000000
   0.0000000000   0.0000000000
   0.0000000000   0.0000000000
   0.0000000000   0.0000000000
   0.0000000000   0.0000000000
   0.0000000000   0.0000000000
   0.0000000000   0.0000000000
   0.0000000000   0.0000000000
   0.0000000000   0.0000000000
   0.0000000000   0.0000000000
   0.0000000000   0.0000000000
   0.0000000000   0.0000000000
  -0.0000000000   0.0000000000
   0.0000000000   0.0000000000
   0.0000000000   0.0000000000
  -0.0000000000   0.0000000000
   0.0000000000   0.0000000000
   0.0000000000   0.0000000000
  -0.0000000000   0.0000000000
   0.0000000000   0.0000000000
   0.0000000000   0.0000000000
  -0.0000000000   0.0000000000
   0.0000000000   0.0000000000
   0.0000000000   0.0000000000
   0.0000000000   0.0000000000
   0.0000000000   0.0000000000
   0.0000000000   0.0000000000
   0.0000000000   0.0000000000
   0.0000000000   0.0000000000
   0.0000000000   0.0000000000
   0.0000000000   0.0000000000
   0.0000000000   0.0000000000
   0.0000000000   0.0000000000
   0.0000000000   0.0000000000
   0.0000000000   0.0000000000
   0.0000000000   0.0000000000
   0.0000000000   0.0000000000
   0.0000000000   0.0000000000
   0.0000000000   0.0000000000
   0.0000000000   0.0000000000
   0.0000000000   0.0000000000
   0.0000000000   0.0000000000
   0.0000000000   0.0000000000
   0.0000000000   0.0000000000
   0.0000000000   0.0000000000
   0.0000000000   0.0000000000
   0.0000000000   0.0000000000
   0.0000000000   0.0000000000
   0.0000000000   0.0000000000
   0.0000000000   0.0000000000
   0.0000000000   0.0000000000
   0.0000000000   0.0000000000
   0.0000000000   0.0000000000
   0.0000000000   0.0000000000
   0.0000000000   0.0000000000
   0.0000000000   0.0000000000
   0.0000000000   0.0000000000
   0.0000000000   0.0000000000
   0.0000000000   0.0000000000
   0.0000000000   0.0000000000
  -0.0000000000   0.0000000000
   0.0000000000   0.0000000000
   0.0000000000   0.0000000000
  -0.0000000000   0.0000000000
   0.0000000000   0.0000000000
   0.0000000000   0.0000000000
   0.0000000000   0.0000000000
   0.0000000000   0.0000000000
   0.0000000000   0.0000000000
   0.0000000000   0.0000000000
   0.0000000000   0.0000000000
   0.0000000000   0.0000000000
  -0.0000000000   0.0000000000
   0.0000000000   0.0000000000
   0.0000000000   0.0000000000
  -0.0000000000   0.0000000000
   0.0000000000   0.0000000000
   0.0000000000   0.0000000000
   0.0000000000   0.0000000000
   0.0000000000   0.0000000000
   0.0000000000   0.0000000000
   0.0000000000   0.0000000000
   0.0000000000   0.0000000000
   0.0000000000   0.0000000000
   0.0000000000   0.0000000000
   0.0000000000   0.0000000000
   0.0000000000   0.0000000000
   0.0000000000   0.0000000000
   0.0000000000   0.0000000000
   0.0000000000   0.0000000000
   0.0000000000   0.0000000000
   0.0000000000   0.0000000000
   0.0000000000   0.0000000000
   0.0000000000   0.0000000000
   0.0000000000   0.0000000000
   0.0000000000   0.0000000000
   0.0000000000   0.0000000000
   0.0000000000   0.0000000000
   0.0000000000   0.0000000000
   0.0000000000   0.0000000000
   0.0000000000   0.0000000000
   0.0000000000   0.0000000000
   0.0000000000   0.0000000000
   0.0000000000   0.0000000000
   0.0000000000   0.0000000000
   0.0000000000   0.0000000000
   0.0000000000   0.0000000000
   0.0000000000   0.0000000000
   0.0000000000   0.0000000000
   0.0000000000   0.0000000000
   0.0000000000   0.0000000000
   0.0000000000   0.0000000000
   0.0000000000   0.0000000000
   0.0000000000   0.0000000000
  -0.0000000000   0.0000000000
   0.0000000000   0.0000000000
   0.0000000000   0.0000000000
  -0.0000000000   0.0000000000
   0.0000000000   0.0000000000
   0.0000000000   0.0000000000
   0.0000000000   0.0000000000
   0.0000000000   0.0000000000
   0.0000000000   0.0000000000
   0.0000000000   0.0000000000
   0.0000000000   0.0000000000
   0.0000000000   0.0000000000
  -0.0000000000   0.0000000000
   0.0000000000   0.0000000000
   0.0000000000   0.0000000000
  -0.0000000000   0.0000000000
   0.0000000000   0.0000000000
   0.0000000000   0.0000000000
   0.0000000000   0.0000000000
   0.0000000000   0.0000000000
   0.0000000000   0.0000000000
   0.0000000000   0.0000000000
   0.0000000000   0.0000000000
   0.0000000000   0.0000000000
   0.0000000000   0.0000000000
   0.0000000000   0.0000000000
   0.0000000000   0.0000000000
   0.0000000000   0.0000000000
   0.0000000000   0.0000000000
   0.0000000000   0.0000000000
   0.0000000000   0.0000000000
   0.0000000000   0.0000000000
   0.0000000000   0.0000000000
   0.0000000000   0.0000000000
   0.0000000000   0.0000000000
   0.0000000000   0.0000000000
   0.0000000000   0.0000000000
   0.0000000000   0.0000000000
   0.0000000000   0.0000000000
   0.0000000000   0.0000000000
   0.0000000000   0.0000000000
   0.0000000000   0.0000000000
   0.0000000000   0.0000000000
   0.0000000000   0.0000000000
   0.0000000000   0.0000000000
   0.0000000000   0.0000000000
   0.0000000000   0.0000000000
   0.0000000000   0.0000000000
   0.0000000000   0.0000000000
   0.0000000000   0.0000000000
   0.0000000000   0.0000000000
   0.0000000000   0.0000000000
   0.0000000000   0.0000000000
   0.0000000000   0.0000000000
  -0.0000000000   0.0000000000
   0.0000000000   0.0000000000
   0.0000000000   0.0000000000
  -0.0000000000   0.0000000000
   0.0000000000   0.0000000000
   0.0000000000   0.0000000000
  -0.0000000000   0.0000000000
   0.0000000000   0.0000000000
   0.0000000000   0.0000000000
  -0.0000000000   0.0000000000
   0.0000000000   0.0000000000
   0.0000000000   0.0000000000
   0.0000000000   0.0000000000
   0.0000000000   0.0000000000
   0.0000000000   0.0000000000
   0.0000000000   0.0000000000
   0.0000000000   0.0000000000
   0.0000000000   0.0000000000
   0.0000000000   0.0000000000
   0.0000000000   0.0000000000
   0.0000000000   0.0000000000
   0.0000000000   0.0000000000
   0.0000000000   0.0000000000
   0.0000000000   0.0000000000
   0.0000000000   0.0000000000
   0.0000000000   0.0000000000
   0.0000000000   0.0000000000
   0.0000000000   0.0000000000
   0.0000000000   0.0000000000
   0.0000000000   0.0000000000
   0.0000000000   0.0000000000
   0.0000000000   0.0000000000
   0.0000000000   0.0000000000
   0.0000000000   0.0000000000
   0.0000000000   0.0000000000
   0.0000000000   0.0000000000
   0.0000000000   0.0000000000
   0.0000000000   0.0000000000
   0.0000000000   0.0000000000
   0.0000000000   0.0000000000
   0.0000000000   0.0000000000
   0.0000000000   0.0000000000
   0.0000000000   0.0000000000
   0.0000000000   0.0000000000
   0.0000000000   0.0000000000
   0.0000000000   0.0000000000
   0.0000000000   0.0000000000
   0.0000000000   0.0000000000
   0.0000000000   0.0000000000
   0.0000000000   0.0000000000
   0.0000000000   0.0000000000
   0.0000000000   0.0000000000
   0.0000000000   0.0000000000
   0.0000000000   0.0000000000
  -0.0000000000   0.0000000000
   0.0000000000   0.0000000000
   0.0000000000   0.0000000000
  -0.0000000000   0.0000000000
   0.0000000000   0.0000000000
   0.0000000000   0.0000000000
  -0.0000000000   0.0000000000
   0.0000000000   0.0000000000
   0.0000000000   0.0000000000
  -0.0000000000   0.0000000000
   0.0000000000   0.0000000000
   0.0000000000   0.0000000000
   0.0000000000   0.0000000000
   0.0000000000   0.0000000000
   0.0000000000   0.0000000000
   0.0000000000   0.0000000000
   0.0000000000   0.0000000000
   0.0000000000   0.0000000000
   0.0000000000   0.0000000000
   0.0000000000   0.0000000000
   0.0000000000   0.0000000000
   0.0000000000   0.0000000000
   0.0000000000   0.0000000000
   0.0000000000   0.0000000000
   0.0000000000   0.0000000000
   0.0000000000   0.0000000000
   0.0000000000   0.0000000000
   0.0000000000   0.0000000000
   0.0000000000   0.0000000000
   0.0000000000   0.0000000000
   0.0000000000   0.0000000000
   0.0000000000   0.0000000000
   0.0000000000   0.0000000000
   0.0000000000   0.0000000000
   0.0000000000   0.0000000000
   0.0000000000   0.0000000000
   0.0000000000   0.0000000000
   0.0000000000   0.0000000000
   0.0000000000   0.0000000000
   0.0000000000   0.0000000000
   0.0000000000   0.0000000000
   0.0000000000   0.0000000000
   0.0000000000   0.0000000000
   0.0000000000   0.0000000000
   0.0000000000   0.0000000000
   0.0000000000   0.0000000000
   0.0000000000   0.0000000000
   0.0000000000   0.0000000000
   0.0000000000   0.0000000000
   0.0000000000   0.0000000000
   0.0000000000   0.0000000000
   0.0000000000   0.0000000000
   0.0000000000   0.0000000000
   0.0000000000   0.0000000000
     Frequencies of the matrix for the current q in the star (cm^{-1})
     0.04504     0.04504     0.00000    98.11378   193.56122   252.36263
   252.36263   363.48609   363.48609   377.17242   535.34693   537.11180
   537.11180   655.20670   655.94139   655.94139   700.19750   818.83304


     ===================================================================
     irreducible q point #    2
     ===================================================================

     Symmetries of small group of q:  4
 
     Number of q in the star =    4
     List of q in the star:
          1   0.000000000   0.000000000   0.055361662
          2   0.000000000   0.055361662   0.000000000
          3   0.000000000   0.000000000  -0.055361662
          4   0.000000000  -0.055361662   0.000000000
     Frequencies of the matrix for the current q in the star (cm^-1)
    83.08768   116.44436   121.84300   150.67450   182.42985   256.87121
   323.26674   326.93891   377.46719   378.61215   521.33419   533.06717
   571.70218   644.29494   657.19460   687.46950   814.96229   820.89810
     Frequencies of the matrix for the current q in the star (cm^-1)
    83.08768   116.44436   121.84300   150.67450   182.42985   256.87121
   323.26674   326.93891   377.46719   378.61215   521.33419   533.06717
   571.70218   644.29494   657.19460   687.46950   814.96229   820.89810
     Frequencies of the matrix for the current q in the star (cm^-1)
    83.08768   116.44436   121.84300   150.67450   182.42985   256.87121
   323.26674   326.93891   377.46719   378.61215   521.33419   533.06717
   571.70218   644.29494   657.19460   687.46950   814.96229   820.89810
     Frequencies of the matrix for the current q in the star (cm^-1)
    83.08768   116.44436   121.84300   150.67450   182.42985   256.87121
   323.26674   326.93891   377.46719   378.61215   521.33419   533.06717
   571.70218   644.29494   657.19460   687.46950   814.96229   820.89810
 
        q(    2 ) = (   0.0000000   0.0000000   0.0553617 )
                                    s                        frac. trans.

      isym =  1     identity                                     

 cryst.   s( 1) = (     1          0          0      )
                  (     0          1          0      )
                  (     0          0          1      )

 cart.    s( 1) = (  1.0000000  0.0000000  0.0000000 )
                  (  0.0000000  1.0000000  0.0000000 )
                  (  0.0000000  0.0000000  1.0000000 )


      isym =  2     inv. 180 deg rotation - cart. axis [1,0,0]   

 cryst.   s( 2) = (    -1          0          0      )
                  (     0          1          0      )
                  (     0          0          1      )

 cart.    s( 2) = ( -1.0000000  0.0000000  0.0000000 )
                  (  0.0000000  1.0000000  0.0000000 )
                  (  0.0000000  0.0000000  1.0000000 )


      isym =  3     inv. 180 deg rotation - cart. axis [0,1,0]   

 cryst.   s( 3) = (     1          0          0      )    f =( -0.5000000 )
                  (     0         -1          0      )       (  0.5000000 )
                  (     0          0          1      )       (  0.5000000 )

 cart.    s( 3) = (  1.0000000  0.0000000  0.0000000 )    f =( -1.4891805 )
                  (  0.0000000 -1.0000000  0.0000000 )       (  2.2578802 )
                  (  0.0000000  0.0000000  1.0000000 )       (  2.2578802 )


      isym =  4     180 deg rotation - cart. axis [0,0,1]        

 cryst.   s( 4) = (    -1          0          0      )    f =( -0.5000000 )
                  (     0         -1          0      )       (  0.5000000 )
                  (     0          0          1      )       (  0.5000000 )

 cart.    s( 4) = ( -1.0000000  0.0000000  0.0000000 )    f =( -1.4891805 )
                  (  0.0000000 -1.0000000  0.0000000 )       (  2.2578802 )
                  (  0.0000000  0.0000000  1.0000000 )       (  2.2578802 )


      isym =  5     180 deg rotation - cart. axis [0,1,1]        

 cryst.   s( 5) = (    -1          0          0      )
                  (     0          0          1      )
                  (     0          1          0      )

 cart.    s( 5) = ( -1.0000000  0.0000000  0.0000000 )
                  (  0.0000000  0.0000000  1.0000000 )
                  (  0.0000000  1.0000000  0.0000000 )


      isym =  6     inversion                                    

 cryst.   s( 6) = (    -1          0          0      )
                  (     0         -1          0      )
                  (     0          0         -1      )

 cart.    s( 6) = ( -1.0000000  0.0000000  0.0000000 )
                  (  0.0000000 -1.0000000  0.0000000 )
                  (  0.0000000  0.0000000 -1.0000000 )


      isym =  7     180 deg rotation - cart. axis [1,0,0]        

 cryst.   s( 7) = (     1          0          0      )
                  (     0         -1          0      )
                  (     0          0         -1      )

 cart.    s( 7) = (  1.0000000  0.0000000  0.0000000 )
                  (  0.0000000 -1.0000000  0.0000000 )
                  (  0.0000000  0.0000000 -1.0000000 )


      isym =  8     inv. 180 deg rotation - cart. axis [0,1,-1]  

 cryst.   s( 8) = (     1          0          0      )
                  (     0          0          1      )
                  (     0          1          0      )

 cart.    s( 8) = (  1.0000000  0.0000000  0.0000000 )
                  (  0.0000000  0.0000000  1.0000000 )
                  (  0.0000000  1.0000000  0.0000000 )


      isym =  9      90 deg rotation - cart. axis [-1,0,0]       

 cryst.   s( 9) = (     1          0          0      )    f =( -0.5000000 )
                  (     0          0         -1      )       (  0.5000000 )
                  (     0          1          0      )       (  0.5000000 )

 cart.    s( 9) = (  1.0000000  0.0000000  0.0000000 )    f =( -1.4891805 )
                  (  0.0000000  0.0000000  1.0000000 )       (  2.2578802 )
                  (  0.0000000 -1.0000000  0.0000000 )       (  2.2578802 )


      isym = 10     180 deg rotation - cart. axis [0,1,-1]       

 cryst.   s(10) = (    -1          0          0      )
                  (     0          0         -1      )
                  (     0         -1          0      )

 cart.    s(10) = ( -1.0000000  0.0000000  0.0000000 )
                  (  0.0000000  0.0000000 -1.0000000 )
                  (  0.0000000 -1.0000000  0.0000000 )


      isym = 11     inv. 180 deg rotation - cart. axis [0,0,1]   

 cryst.   s(11) = (     1          0          0      )    f =( -0.5000000 )
                  (     0          1          0      )       (  0.5000000 )
                  (     0          0         -1      )       (  0.5000000 )

 cart.    s(11) = (  1.0000000  0.0000000  0.0000000 )    f =( -1.4891805 )
                  (  0.0000000  1.0000000  0.0000000 )       (  2.2578802 )
                  (  0.0000000  0.0000000 -1.0000000 )       (  2.2578802 )


      isym = 12      90 deg rotation - cart. axis [1,0,0]        

 cryst.   s(12) = (     1          0          0      )    f =( -0.5000000 )
                  (     0          0          1      )       (  0.5000000 )
                  (     0         -1          0      )       (  0.5000000 )

 cart.    s(12) = (  1.0000000  0.0000000  0.0000000 )    f =( -1.4891805 )
                  (  0.0000000  0.0000000 -1.0000000 )       (  2.2578802 )
                  (  0.0000000  1.0000000  0.0000000 )       (  2.2578802 )


      isym = 13     inv. 180 deg rotation - cart. axis [0,1,1]   

 cryst.   s(13) = (     1          0          0      )
                  (     0          0         -1      )
                  (     0         -1          0      )

 cart.    s(13) = (  1.0000000  0.0000000  0.0000000 )
                  (  0.0000000  0.0000000 -1.0000000 )
                  (  0.0000000 -1.0000000  0.0000000 )


      isym = 14     180 deg rotation - cart. axis [0,1,0]        

 cryst.   s(14) = (    -1          0          0      )    f =( -0.5000000 )
                  (     0          1          0      )       (  0.5000000 )
                  (     0          0         -1      )       (  0.5000000 )

 cart.    s(14) = ( -1.0000000  0.0000000  0.0000000 )    f =( -1.4891805 )
                  (  0.0000000  1.0000000  0.0000000 )       (  2.2578802 )
                  (  0.0000000  0.0000000 -1.0000000 )       (  2.2578802 )


      isym = 15     inv.  90 deg rotation - cart. axis [-1,0,0]  

 cryst.   s(15) = (    -1          0          0      )    f =( -0.5000000 )
                  (     0          0          1      )       (  0.5000000 )
                  (     0         -1          0      )       (  0.5000000 )

 cart.    s(15) = ( -1.0000000  0.0000000  0.0000000 )    f =( -1.4891805 )
                  (  0.0000000  0.0000000 -1.0000000 )       (  2.2578802 )
                  (  0.0000000  1.0000000  0.0000000 )       (  2.2578802 )


      isym = 16     inv.  90 deg rotation - cart. axis [1,0,0]   

 cryst.   s(16) = (    -1          0          0      )    f =( -0.5000000 )
                  (     0          0         -1      )       (  0.5000000 )
                  (     0          1          0      )       (  0.5000000 )

 cart.    s(16) = ( -1.0000000  0.0000000  0.0000000 )    f =( -1.4891805 )
                  (  0.0000000  0.0000000  1.0000000 )       (  2.2578802 )
                  (  0.0000000 -1.0000000  0.0000000 )       (  2.2578802 )

 iq, i, isym, nog, non_symmorphic
    1    1    1  T  F
    1    2    2  T  F
    1    3    3  T  T
    1    4    4  T  T
     Frequencies of the matrix for the first q in the star (cm^{-1})
    83.08768   116.44436   121.84300   150.67450   182.42985   256.87121
   323.26674   326.93891   377.46719   378.61215   521.33419   533.06717
   571.70218   644.29494   657.19460   687.46950   814.96229   820.89810
     Frequencies of the matrix for the first q in the star (meV)
    10.30156    14.43726    15.10661    18.68126    22.61842    31.84797
    40.07997    40.53526    46.79997    46.94192    64.63720    66.09191
    70.88204    79.88239    81.48175    85.23536   101.04245   101.77839
   0.0000000000   0.0000000000
   0.0000000000   0.0000000000
   0.0000000000   0.0000000000
   0.0000000000  -0.0000000000
   0.0000000000   0.0000000000
   0.0000000000   0.0000000000
[...]
                  (  0.0000000  0.0000000  1.0000000 )       (  2.2578802 )


      isym = 15     inv.  90 deg rotation - cart. axis [-1,0,0]  

 cryst.   s(15) = (    -1          0          0      )    f =( -0.5000000 )
                  (     0          0          1      )       (  0.5000000 )
                  (     0         -1          0      )       (  0.5000000 )

 cart.    s(15) = ( -1.0000000  0.0000000  0.0000000 )    f =( -1.4891805 )
                  (  0.0000000  0.0000000 -1.0000000 )       (  2.2578802 )
                  (  0.0000000  1.0000000  0.0000000 )       (  2.2578802 )


      isym = 16     inv.  90 deg rotation - cart. axis [1,0,0]   

 cryst.   s(16) = (    -1          0          0      )    f =( -0.5000000 )
                  (     0          0         -1      )       (  0.5000000 )
                  (     0          1          0      )       (  0.5000000 )

 cart.    s(16) = ( -1.0000000  0.0000000  0.0000000 )    f =( -1.4891805 )
                  (  0.0000000  0.0000000  1.0000000 )       (  2.2578802 )
                  (  0.0000000 -1.0000000  0.0000000 )       (  2.2578802 )

 iq, i, isym, nog, non_symmorphic
    1    1    1  T  F
    1    2    2  F  F
    1    3    3  F  T
    1    4    4  F  T
    1    5    5  F  F
    1    6    6  F  F
    1    7    7  F  F
    1    8    8  T  F
    1    9    9  F  T
    1   10   10  F  F
    1   11   11  F  T
    1   12   12  F  T
    1   13   13  F  F
    1   14   14  F  T
    1   15   15  F  T
    1   16   16  F  T
     Frequencies of the matrix for the first q in the star (cm^{-1})
   147.46589   147.46589   251.70553   251.70553   255.43906   255.43906
   270.34677   270.34677   409.56955   409.56955   581.42281   581.42281
   612.43244   612.43244   640.22397   640.22397   793.14669   793.14669
     Frequencies of the matrix for the first q in the star (meV)
    18.28344    18.28344    31.20751    31.20751    31.67041    31.67041
    33.51873    33.51873    50.78015    50.78015    72.08724    72.08724
    75.93195    75.93195    79.37766    79.37766    98.33766    98.33766
   0.0000000000   0.0000000000
   0.0000000000   0.0000000000
   0.0000000000   0.0000000000
   0.0000000000   0.0000000000
   0.0000000000   0.0000000000
   0.0000000000   0.0000000000
   0.0000000000   0.0000000000
   0.0000000000   0.0000000000
   0.0000000000   0.0000000000
   0.0000000000   0.0000000000
   0.0000000000   0.0000000000
   0.0000000000   0.0000000000
   0.0000000000   0.0000000000
  -0.0000000000   0.0000000000
   0.0000000000   0.0000000000
   0.0000000000   0.0000000000
   0.0000000000   0.0000000000
  -0.0000000000   0.0000000000
   0.0000000000   0.0000000000
   0.0000000000   0.0000000000
   0.0000000000   0.0000000000
   0.0000000000   0.0000000000
   0.0000000000   0.0000000000
   0.0000000000   0.0000000000
   0.0000000000   0.0000000000
   0.0000000000   0.0000000000
   0.0000000000   0.0000000000
   0.0000000000   0.0000000000
   0.0000000000   0.0000000000
   0.0000000000   0.0000000000
  -0.0000000000   0.0000000000
   0.0000000000   0.0000000000
   0.0000000000   0.0000000000
   0.0000000000   0.0000000000
   0.0000000000   0.0000000000
   0.0000000000   0.0000000000
   0.0000000000   0.0000000000
   0.0000000000   0.0000000000
   0.0000000000   0.0000000000
   0.0000000000   0.0000000000
   0.0000000000   0.0000000000
   0.0000000000   0.0000000000
   0.0000000000   0.0000000000
   0.0000000000   0.0000000000
   0.0000000000   0.0000000000
   0.0000000000   0.0000000000
   0.0000000000   0.0000000000
   0.0000000000   0.0000000000
   0.0000000000   0.0000000000
   0.0000000000   0.0000000000
   0.0000000000   0.0000000000
  -0.0000000000   0.0000000000
   0.0000000000   0.0000000000
   0.0000000000   0.0000000000
   0.0000000000   0.0000000000
   0.0000000000   0.0000000000
   0.0000000000   0.0000000000
   0.0000000000   0.0000000000
   0.0000000000   0.0000000000
   0.0000000000   0.0000000000
   0.0000000000   0.0000000000
  -0.0000000000  -0.0000000000
  -0.0000000000  -0.0000000000
   0.0000000000   0.0000000000
   0.0000000000   0.0000000000
   0.0000000000   0.0000000000
  -0.0000000000   0.0000000000
   0.0000000000   0.0000000000
   0.0000000000   0.0000000000
  -0.0000000000   0.0000000000
   0.0000000000   0.0000000000
   0.0000000000   0.0000000000
   0.0000000000   0.0000000000
   0.0000000000   0.0000000000
   0.0000000000   0.0000000000
   0.0000000000   0.0000000000
   0.0000000000   0.0000000000
   0.0000000000   0.0000000000
  -0.0000000000  -0.0000000000
   0.0000000000   0.0000000000
   0.0000000000   0.0000000000
   0.0000000000   0.0000000000
   0.0000000000   0.0000000000
   0.0000000000   0.0000000000
   0.0000000000   0.0000000000
   0.0000000000   0.0000000000
   0.0000000000   0.0000000000
   0.0000000000   0.0000000000
   0.0000000000   0.0000000000
   0.0000000000   0.0000000000
   0.0000000000   0.0000000000
   0.0000000000   0.0000000000
   0.0000000000   0.0000000000
   0.0000000000   0.0000000000
   0.0000000000   0.0000000000
   0.0000000000   0.0000000000
  -0.0000000000  -0.0000000000
   0.0000000000   0.0000000000
   0.0000000000   0.0000000000
   0.0000000000   0.0000000000
   0.0000000000   0.0000000000
   0.0000000000   0.0000000000
   0.0000000000   0.0000000000
   0.0000000000   0.0000000000
   0.0000000000   0.0000000000
   0.0000000000   0.0000000000
   0.0000000000   0.0000000000
   0.0000000000   0.0000000000
   0.0000000000   0.0000000000
   0.0000000000   0.0000000000
   0.0000000000   0.0000000000
   0.0000000000   0.0000000000
  -0.0000000000   0.0000000000
  -0.0000000000   0.0000000000
   0.0000000000   0.0000000000
   0.0000000000   0.0000000000
   0.0000000000   0.0000000000
   0.0000000000   0.0000000000
   0.0000000000   0.0000000000
   0.0000000000   0.0000000000
   0.0000000000   0.0000000000
  -0.0000000000   0.0000000000
   0.0000000000  -0.0000000000
   0.0000000000   0.0000000000
   0.0000000000  -0.0000000000
  -0.0000000000   0.0000000000
   0.0000000000   0.0000000000
   0.0000000000   0.0000000000
   0.0000000000   0.0000000000
  -0.0000000000   0.0000000000
   0.0000000000   0.0000000000
   0.0000000000   0.0000000000
   0.0000000000   0.0000000000
   0.0000000000   0.0000000000
   0.0000000000   0.0000000000
   0.0000000000   0.0000000000
   0.0000000000   0.0000000000
   0.0000000000   0.0000000000
   0.0000000000   0.0000000000
   0.0000000000   0.0000000000
   0.0000000000   0.0000000000
   0.0000000000  -0.0000000000
   0.0000000000   0.0000000000
   0.0000000000   0.0000000000
   0.0000000000   0.0000000000
   0.0000000000   0.0000000000
   0.0000000000   0.0000000000
  -0.0000000000   0.0000000000
   0.0000000000   0.0000000000
   0.0000000000   0.0000000000
   0.0000000000   0.0000000000
   0.0000000000   0.0000000000
   0.0000000000   0.0000000000
   0.0000000000   0.0000000000
   0.0000000000   0.0000000000
   0.0000000000   0.0000000000
   0.0000000000  -0.0000000000
   0.0000000000   0.0000000000
   0.0000000000   0.0000000000
   0.0000000000   0.0000000000
   0.0000000000   0.0000000000
   0.0000000000   0.0000000000
   0.0000000000   0.0000000000
   0.0000000000   0.0000000000
   0.0000000000   0.0000000000
   0.0000000000   0.0000000000
   0.0000000000   0.0000000000
   0.0000000000   0.0000000000
   0.0000000000   0.0000000000
   0.0000000000   0.0000000000
   0.0000000000   0.0000000000
   0.0000000000   0.0000000000
   0.0000000000   0.0000000000
   0.0000000000   0.0000000000
   0.0000000000   0.0000000000
  -0.0000000000   0.0000000000
   0.0000000000   0.0000000000
   0.0000000000   0.0000000000
   0.0000000000   0.0000000000
  -0.0000000000   0.0000000000
   0.0000000000   0.0000000000
   0.0000000000   0.0000000000
   0.0000000000   0.0000000000
   0.0000000000   0.0000000000
   0.0000000000   0.0000000000
   0.0000000000   0.0000000000
   0.0000000000   0.0000000000
   0.0000000000   0.0000000000
   0.0000000000   0.0000000000
   0.0000000000   0.0000000000
   0.0000000000   0.0000000000
   0.0000000000   0.0000000000
  -0.0000000000   0.0000000000
   0.0000000000   0.0000000000
   0.0000000000   0.0000000000
  -0.0000000000   0.0000000000
   0.0000000000   0.0000000000
   0.0000000000   0.0000000000
   0.0000000000   0.0000000000
   0.0000000000   0.0000000000
   0.0000000000   0.0000000000
   0.0000000000   0.0000000000
   0.0000000000   0.0000000000
   0.0000000000   0.0000000000
   0.0000000000   0.0000000000
   0.0000000000   0.0000000000
   0.0000000000   0.0000000000
   0.0000000000   0.0000000000
   0.0000000000   0.0000000000
   0.0000000000   0.0000000000
  -0.0000000000   0.0000000000
   0.0000000000   0.0000000000
   0.0000000000   0.0000000000
  -0.0000000000   0.0000000000
   0.0000000000   0.0000000000
   0.0000000000   0.0000000000
   0.0000000000   0.0000000000
  -0.0000000000   0.0000000000
   0.0000000000   0.0000000000
  -0.0000000000   0.0000000000
   0.0000000000   0.0000000000
   0.0000000000   0.0000000000
   0.0000000000   0.0000000000
   0.0000000000   0.0000000000
   0.0000000000   0.0000000000
   0.0000000000   0.0000000000
  -0.0000000000   0.0000000000
  -0.0000000000   0.0000000000
   0.0000000000   0.0000000000
   0.0000000000   0.0000000000
   0.0000000000   0.0000000000
   0.0000000000   0.0000000000
   0.0000000000   0.0000000000
   0.0000000000   0.0000000000
  -0.0000000000   0.0000000000
   0.0000000000   0.0000000000
   0.0000000000   0.0000000000
   0.0000000000   0.0000000000
   0.0000000000   0.0000000000
   0.0000000000   0.0000000000
  -0.0000000000   0.0000000000
   0.0000000000   0.0000000000
   0.0000000000   0.0000000000
  -0.0000000000   0.0000000000
   0.0000000000   0.0000000000
   0.0000000000   0.0000000000
   0.0000000000   0.0000000000
   0.0000000000   0.0000000000
   0.0000000000   0.0000000000
   0.0000000000   0.0000000000
   0.0000000000   0.0000000000
   0.0000000000   0.0000000000
   0.0000000000   0.0000000000
   0.0000000000   0.0000000000
   0.0000000000   0.0000000000
   0.0000000000   0.0000000000
   0.0000000000   0.0000000000
   0.0000000000   0.0000000000
   0.0000000000   0.0000000000
   0.0000000000   0.0000000000
   0.0000000000   0.0000000000
   0.0000000000   0.0000000000
   0.0000000000   0.0000000000
   0.0000000000   0.0000000000
   0.0000000000   0.0000000000
   0.0000000000   0.0000000000
   0.0000000000   0.0000000000
   0.0000000000   0.0000000000
   0.0000000000   0.0000000000
   0.0000000000   0.0000000000
   0.0000000000   0.0000000000
   0.0000000000   0.0000000000
  -0.0000000000   0.0000000000
  -0.0000000000   0.0000000000
   0.0000000000   0.0000000000
   0.0000000000   0.0000000000
   0.0000000000   0.0000000000
   0.0000000000   0.0000000000
   0.0000000000   0.0000000000
   0.0000000000   0.0000000000
  -0.0000000000   0.0000000000
  -0.0000000000   0.0000000000
   0.0000000000   0.0000000000
   0.0000000000   0.0000000000
   0.0000000000   0.0000000000
   0.0000000000   0.0000000000
   0.0000000000   0.0000000000
   0.0000000000   0.0000000000
   0.0000000000   0.0000000000
   0.0000000000   0.0000000000
   0.0000000000   0.0000000000
   0.0000000000   0.0000000000
   0.0000000000   0.0000000000
   0.0000000000   0.0000000000
   0.0000000000   0.0000000000
   0.0000000000   0.0000000000
   0.0000000000   0.0000000000
   0.0000000000   0.0000000000
   0.0000000000   0.0000000000
   0.0000000000   0.0000000000
   0.0000000000   0.0000000000
   0.0000000000   0.0000000000
   0.0000000000   0.0000000000
   0.0000000000   0.0000000000
   0.0000000000   0.0000000000
   0.0000000000   0.0000000000
  -0.0000000000   0.0000000000
   0.0000000000   0.0000000000
   0.0000000000   0.0000000000
   0.0000000000   0.0000000000
   0.0000000000   0.0000000000
   0.0000000000   0.0000000000
  -0.0000000000   0.0000000000
   0.0000000000   0.0000000000
   0.0000000000   0.0000000000
  -0.0000000000   0.0000000000
   0.0000000000   0.0000000000
   0.0000000000   0.0000000000
   0.0000000000   0.0000000000
   0.0000000000   0.0000000000
   0.0000000000   0.0000000000
   0.0000000000   0.0000000000
   0.0000000000   0.0000000000
   0.0000000000   0.0000000000
     Frequencies of the matrix for the current q in the star (cm^{-1})
   147.46589   147.46589   251.70553   251.70553   255.43906   255.43906
   270.34677   270.34677   409.56955   409.56955   581.42281   581.42281
   612.43244   612.43244   640.22397   640.22397   793.14669   793.14669

     Writing epmatq on .epb files


     The .epb files have been correctly written


     Band disentanglement is used: nbndsub =   24

     Computes the analytic long-range interaction for polar materials [lpolar]
      
     Construct the Wigner-Seitz cell using Wannier centers and atomic positions 
     Number of WS vectors for electrons      175
     Number of WS vectors for phonons      175
     Number of WS vectors for electron-phonon      175
     Maximum number of cores for efficient parallelization     1050
     Interpolating MB and KS eigenvalues

     Velocity matrix elements calculated
 
 
     Bloch2wane:          1 /         96
     Bloch2wane:          2 /         96
     Bloch2wane:          3 /         96
     Bloch2wane:          4 /         96
     Bloch2wane:          5 /         96
     Bloch2wane:          6 /         96
     Bloch2wane:          7 /         96
     Bloch2wane:          8 /         96
     Bloch2wane:          9 /         96
     Bloch2wane:         10 /         96
     Bloch2wane:         11 /         96
     Bloch2wane:         12 /         96
     Bloch2wane:         13 /         96
     Bloch2wane:         14 /         96
     Bloch2wane:         15 /         96
     Bloch2wane:         16 /         96
     Bloch2wane:         17 /         96
     Bloch2wane:         18 /         96
     Bloch2wane:         19 /         96
     Bloch2wane:         20 /         96
     Bloch2wane:         21 /         96
     Bloch2wane:         22 /         96
     Bloch2wane:         23 /         96
     Bloch2wane:         24 /         96
     Bloch2wane:         25 /         96
     Bloch2wane:         26 /         96
     Bloch2wane:         27 /         96
     Bloch2wane:         28 /         96
     Bloch2wane:         29 /         96
     Bloch2wane:         30 /         96
     Bloch2wane:         31 /         96
     Bloch2wane:         32 /         96
     Bloch2wane:         33 /         96
     Bloch2wane:         34 /         96
     Bloch2wane:         35 /         96
     Bloch2wane:         36 /         96
     Bloch2wane:         37 /         96
     Bloch2wane:         38 /         96
     Bloch2wane:         39 /         96
     Bloch2wane:         40 /         96
     Bloch2wane:         41 /         96
     Bloch2wane:         42 /         96
     Bloch2wane:         43 /         96
     Bloch2wane:         44 /         96
     Bloch2wane:         45 /         96
     Bloch2wane:         46 /         96
     Bloch2wane:         47 /         96
     Bloch2wane:         48 /         96
     Bloch2wane:         49 /         96
     Bloch2wane:         50 /         96
     Bloch2wane:         51 /         96
     Bloch2wane:         52 /         96
     Bloch2wane:         53 /         96
     Bloch2wane:         54 /         96
     Bloch2wane:         55 /         96
     Bloch2wane:         56 /         96
     Bloch2wane:         57 /         96
     Bloch2wane:         58 /         96
     Bloch2wane:         59 /         96
     Bloch2wane:         60 /         96
     Bloch2wane:         61 /         96
     Bloch2wane:         62 /         96
     Bloch2wane:         63 /         96
     Bloch2wane:         64 /         96
     Bloch2wane:         65 /         96
     Bloch2wane:         66 /         96
     Bloch2wane:         67 /         96
     Bloch2wane:         68 /         96
     Bloch2wane:         69 /         96
     Bloch2wane:         70 /         96
     Bloch2wane:         71 /         96
     Bloch2wane:         72 /         96
     Bloch2wane:         73 /         96
     Bloch2wane:         74 /         96
     Bloch2wane:         75 /         96
     Bloch2wane:         76 /         96
     Bloch2wane:         77 /         96
     Bloch2wane:         78 /         96
     Bloch2wane:         79 /         96
     Bloch2wane:         80 /         96
     Bloch2wane:         81 /         96
     Bloch2wane:         82 /         96
     Bloch2wane:         83 /         96
     Bloch2wane:         84 /         96
     Bloch2wane:         85 /         96
     Bloch2wane:         86 /         96
     Bloch2wane:         87 /         96
     Bloch2wane:         88 /         96
     Bloch2wane:         89 /         96
     Bloch2wane:         90 /         96
     Bloch2wane:         91 /         96
     Bloch2wane:         92 /         96
     Bloch2wane:         93 /         96
     Bloch2wane:         94 /         96
     Bloch2wane:         95 /         96
     Bloch2wane:         96 /         96
 
     Bloch2wanp:          1 /          2
     Bloch2wanp:          2 /          2

     Writing Hamiltonian, Dynamical matrix and EP vertex in Wann rep to file

     ===================================================================
     Memory usage:  VmHWM =       872Mb
                   VmPeak =      3340Mb
     ===================================================================
     
     Using uniform q-mesh:    6   4   4
     Size of q point mesh for interpolation:         96
     Using uniform k-mesh:    6   4   4
     Size of k point mesh for interpolation:        192
     Max number of k points per pool:                2

     Fermi energy coarse grid =   6.722701 eV

     Fermi energy is calculated from the fine k-mesh: Ef =   7.888984 eV

     ===================================================================

              ibndmin =     5  ebndmin =    -0.131
              ibndmax =    21  ebndmax =     1.314


     Number of ep-matrix elements per pool :         5202 ~=   40.64 Kb (@ 8 bytes/ DP)
     We only need to compute       96 q-points
      
     ===================================================================
     Memory usage:  VmHWM =       872Mb
                   VmPeak =      3340Mb
     ===================================================================


     Unfolding on the coarse grid
     elphon_wrap  :   4518.77s CPU   4803.53s WALL (       1 calls)

     INITIALIZATION: 

     set_drhoc    :    131.20s CPU    131.21s WALL (      97 calls)
     init_vloc    :      0.02s CPU      0.03s WALL (       1 calls)
     init_us_1    :      0.29s CPU      0.29s WALL (       2 calls)



     Electron-Phonon interpolation
     ephwann      :    802.83s CPU   1287.16s WALL (       1 calls)
     ep-interp    :    104.32s CPU    108.57s WALL (      96 calls)

     Ham: step 1  :      0.00s CPU      0.00s WALL (       2 calls)
     Ham: step 2  :      0.07s CPU      0.12s WALL (       2 calls)
     ep: step 1   :      0.38s CPU      0.39s WALL (    1728 calls)
     ep: step 2   :    348.01s CPU    830.29s WALL (       1 calls)
     DynW2B       :     10.82s CPU     10.82s WALL (      96 calls)
     HamW2B       :      5.23s CPU      5.31s WALL (    2691 calls)
     ephW2Bp      :     39.70s CPU     43.87s WALL (      96 calls)
     ephW2B       :      2.26s CPU      2.26s WALL (      96 calls)
     vmewan2bloch :      1.68s CPU      1.68s WALL (     192 calls)
     vmewan2bloch :      1.68s CPU      1.68s WALL (     192 calls)


     Total program execution
     EPW          :      1h34m CPU      1h48m WALL

     ===============================================================================
     The functionality-dependent EPW.bib file was created with suggested citations. 
     Please consider citing the papers listed in EPW.bib.                           
     ===============================================================================
                                                                                    
