<PP_INFO>
Generated using Fritz-Haber code                                                
Author: unknown    Generation date: as well                                     
Info: automatically converted from FHI format                                   
    1        The Pseudo was generated with a Scalar-Relativistic Calculation
nl pn  l   occ               Rcut            Rcut US             E pseu
4s  0  0  2.00      0.00000000000      0.00000000000      0.00000000000
4p  0  1  1.75      0.00000000000      0.00000000000      0.00000000000
4d  0  2  0.25      0.00000000000      0.00000000000      0.00000000000



   pe Ge
   type=tm2
 n=Ge c=car
    0.0
    6    3
    4    0      2.00
    4    1      1.75
    4    2      0.25
    1.98      2.18      2.46      0.00       0.00      0.00

[kioup@Macbook] [16:37:21] [~/code/atom-5.70/Ge_GeO2] $ ~/code/espresso-4.3.1/upftools/fhi2upf.x 
Input file > OUTPUT.cpi
Pseudopotential with NLCC successfully read
Atom name > Ge
l local (max: 2) > 2
DFT > PZ
Wavefunction # 1: label, occupancy > 4s, 2.00
Wavefunction # 2: label, occupancy > 4p, 1.75
Wavefunction # 3: label, occupancy > 4d, 0.25
Pseudopotential successfully converted
Output PP file in UPF format :  OUTPUT.cpi.UPF  


</PP_INFO>


<PP_HEADER>
   0                   Version Number
  Ge                   Element
   NC                  Norm - Conserving pseudopotential
    T                  Nonlinear Core Correction
SLA  PZ   NOGX NOGC    PZ   Exchange-Correlation functional
    4.00000000000      Z valence
    0.00000000000      Total energy
    0.00000    0.00000 Suggested cutoff for wfc and rho
    1                  Max angular momentum component
 1140                  Number of points in mesh
    3    2             Number of Wavefunctions, Number of Projectors
 Wavefunctions         nl  l   occ
                       4s  0  2.00
                       4p  1  1.75
                       4d  2  0.25
</PP_HEADER>


<PP_MESH>
  <PP_R>
  9.74339504232E-07  1.96093469070E-06  2.95993971692E-06  3.97151067944E-06
  4.99580563830E-06  6.03298464166E-06  7.08320975085E-06  8.14664506569E-06
  9.22345675010E-06  1.03138130581E-05  1.14178843601E-05  1.25358431694E-05
  1.36678641695E-05  1.48141242408E-05  1.59748024890E-05  1.71500802722E-05
  1.83401412300E-05  1.95451713120E-05  2.07653588064E-05  2.20008943701E-05
  2.32519710580E-05  2.45187843534E-05  2.58015321985E-05  2.71004150252E-05
  2.84156357865E-05  2.97473999885E-05  3.10959157219E-05  3.24613936952E-05
  3.38440472669E-05  3.52440924797E-05  3.66617480932E-05  3.80972356193E-05
  3.95507793556E-05  4.10226064213E-05  4.25129467925E-05  4.40220333378E-05
  4.55501018551E-05  4.70973911082E-05  4.86641428642E-05  5.02506019312E-05
  5.18570161967E-05  5.34836366662E-05  5.51307175024E-05  5.67985160652E-05
  5.84872929513E-05  6.01973120357E-05  6.19288405122E-05  6.36821489358E-05
  6.54575112644E-05  6.72552049021E-05  6.90755107420E-05  7.09187132108E-05
  7.27851003125E-05  7.46749636739E-05  7.65885985900E-05  7.85263040701E-05
  8.04883828848E-05  8.24751416127E-05  8.44868906890E-05  8.65239444536E-05
  8.85866212002E-05  9.06752432264E-05  9.27901368835E-05  9.49316326280E-05
  9.71000650729E-05  9.92957730402E-05  1.01519099614E-04  1.03770392193E-04
  1.06050002547E-04  1.08358286869E-04  1.10695605834E-04  1.13062324652E-04
  1.15458813127E-04  1.17885445718E-04  1.20342601588E-04  1.22830664675E-04
  1.25350023742E-04  1.27901072446E-04  1.30484209392E-04  1.33099838201E-04
  1.35748367570E-04  1.38430211337E-04  1.41145788546E-04  1.43895523512E-04
  1.46679845886E-04  1.49499190723E-04  1.52353998554E-04  1.55244715446E-04
  1.58171793080E-04  1.61135688819E-04  1.64136865776E-04  1.67175792892E-04
  1.70252945006E-04  1.73368802929E-04  1.76523853520E-04  1.79718589761E-04
  1.82953510838E-04  1.86229122212E-04  1.89545935705E-04  1.92904469577E-04
  1.96305248603E-04  1.99748804164E-04  2.03235674322E-04  2.06766403907E-04
  2.10341544603E-04  2.13961655033E-04  2.17627300847E-04  2.21339054809E-04
  2.25097496888E-04  2.28903214349E-04  2.32756801842E-04  2.36658861499E-04
  2.40610003024E-04  2.44610843792E-04  2.48662008941E-04  2.52764131475E-04
  2.56917852358E-04  2.61123820618E-04  2.65382693446E-04  2.69695136299E-04
  2.74061823006E-04  2.78483435870E-04  2.82960665777E-04  2.87494212304E-04
  2.92084783826E-04  2.96733097629E-04  3.01439880023E-04  3.06205866450E-04
  3.11031801607E-04  3.15918439555E-04  3.20866543842E-04  3.25876887619E-04
  3.30950253763E-04  3.36087434996E-04  3.41289234015E-04  3.46556463610E-04
  3.51889946798E-04  3.57290516946E-04  3.62759017904E-04  3.68296304135E-04
  3.73903240854E-04  3.79580704154E-04  3.85329581151E-04  3.91150770119E-04
  3.97045180630E-04  4.03013733699E-04  4.09057361922E-04  4.15177009631E-04
  4.21373633032E-04  4.27648200359E-04  4.34001692028E-04  4.40435100784E-04
  4.46949431860E-04  4.53545703134E-04  4.60224945287E-04  4.66988201963E-04
  4.73836529936E-04  4.80770999270E-04  4.87792693491E-04  4.94902709752E-04
  5.02102159008E-04  5.09392166188E-04  5.16773870370E-04  5.24248424960E-04
  5.31816997873E-04  5.39480771713E-04  5.47240943962E-04  5.55098727161E-04
  5.63055349105E-04  5.71112053032E-04  5.79270097820E-04  5.87530758178E-04
  5.95895324853E-04  6.04365104824E-04  6.12941421512E-04  6.21625614984E-04
  6.30419042163E-04  6.39323077039E-04  6.48339110887E-04  6.57468552479E-04
  6.66712828311E-04  6.76073382817E-04  6.85551678605E-04  6.95149196677E-04
  7.04867436665E-04  7.14707917064E-04  7.24672175469E-04  7.34761768815E-04
  7.44978273622E-04  7.55323286240E-04  7.65798423098E-04  7.76405320957E-04
  7.87145637167E-04  7.98021049924E-04  8.09033258533E-04  8.20183983674E-04
  8.31474967671E-04  8.42907974764E-04  8.54484791382E-04  8.66207226427E-04
  8.78077111553E-04  8.90096301453E-04  9.02266674152E-04  9.14590131294E-04
  9.27068598444E-04  9.39704025389E-04  9.52498386439E-04  9.65453680739E-04
  9.78571932582E-04  9.91855191719E-04  1.00530553369E-03  1.01892506013E-03
  1.03271589913E-03  1.04668020552E-03  1.06082016127E-03  1.07513797577E-03
  1.08963588620E-03  1.10431615790E-03  1.11918108468E-03  1.13423298922E-03
  1.14947422342E-03  1.16490716874E-03  1.18053423661E-03  1.19635786880E-03
  1.21238053779E-03  1.22860474713E-03  1.24503303191E-03  1.26166795907E-03
  1.27851212786E-03  1.29556817021E-03  1.31283875116E-03  1.33032656928E-03
  1.34803435707E-03  1.36596488141E-03  1.38412094398E-03  1.40250538170E-03
  1.42112106719E-03  1.43997090917E-03  1.45905785297E-03  1.47838488097E-03
  1.49795501306E-03  1.51777130711E-03  1.53783685945E-03  1.55815480537E-03
  1.57872831958E-03  1.59956061675E-03  1.62065495196E-03  1.64201462124E-03
  1.66364296209E-03  1.68554335397E-03  1.70771921887E-03  1.73017402182E-03
  1.75291127141E-03  1.77593452040E-03  1.79924736621E-03  1.82285345152E-03
  1.84675646483E-03  1.87096014103E-03  1.89546826200E-03  1.92028465719E-03
  1.94541320420E-03  1.97085782942E-03  1.99662250862E-03  2.02271126760E-03
  2.04912818276E-03  2.07587738181E-03  2.10296304437E-03  2.13038940262E-03
  2.15816074199E-03  2.18628140180E-03  2.21475577597E-03  2.24358831368E-03
  2.27278352006E-03  2.30234595694E-03  2.33228024349E-03  2.36259105702E-03
  2.39328313364E-03  2.42436126906E-03  2.45583031931E-03  2.48769520148E-03
  2.51996089452E-03  2.55263244002E-03  2.58571494297E-03  2.61921357258E-03
  2.65313356309E-03  2.68748021454E-03  2.72225889369E-03  2.75747503477E-03
  2.79313414038E-03  2.82924178231E-03  2.86580360247E-03  2.90282531372E-03
  2.94031270076E-03  2.97827162108E-03  3.01670800585E-03  3.05562786082E-03
  3.09503726729E-03  3.13494238308E-03  3.17534944343E-03  3.21626476204E-03
  3.25769473199E-03  3.29964582682E-03  3.34212460146E-03  3.38513769330E-03
  3.42869182324E-03  3.47279379669E-03  3.51745050468E-03  3.56266892490E-03
  3.60845612283E-03  3.65481925281E-03  3.70176555918E-03  3.74930237738E-03
  3.79743713515E-03  3.84617735364E-03  3.89553064861E-03  3.94550473160E-03
  3.99610741117E-03  4.04734659410E-03  4.09923028661E-03  4.15176659562E-03
  4.20496373006E-03  4.25883000207E-03  4.31337382838E-03  4.36860373156E-03
  4.42452834140E-03  4.48115639624E-03  4.53849674432E-03  4.59655834519E-03
  4.65535027109E-03  4.71488170838E-03  4.77516195898E-03  4.83620044178E-03
  4.89800669418E-03  4.96059037353E-03  5.02396125867E-03  5.08812925140E-03
  5.15310437813E-03  5.21889679134E-03  5.28551677123E-03  5.35297472731E-03
  5.42128120002E-03  5.49044686238E-03  5.56048252168E-03  5.63139912113E-03
  5.70320774158E-03  5.77591960329E-03  5.84954606763E-03  5.92409863888E-03
  5.99958896603E-03  6.07602884461E-03  6.15343021850E-03  6.23180518181E-03
  6.31116598081E-03  6.39152501577E-03  6.47289484295E-03  6.55528817656E-03
  6.63871789073E-03  6.72319702152E-03  6.80873876896E-03  6.89535649912E-03
  6.98306374620E-03  7.07187421464E-03  7.16180178126E-03  7.25286049741E-03
  7.34506459121E-03  7.43842846974E-03  7.53296672129E-03  7.62869411765E-03
  7.72562561644E-03  7.82377636338E-03  7.92316169473E-03  8.02379713966E-03
  8.12569842266E-03  8.22888146601E-03  8.33336239227E-03  8.43915752679E-03
  8.54628340029E-03  8.65475675140E-03  8.76459452930E-03  8.87581389636E-03
  8.98843223084E-03  9.10246712959E-03  9.21793641078E-03  9.33485811674E-03
  9.45325051670E-03  9.57313210973E-03  9.69452162757E-03  9.81743803757E-03
  9.94190054569E-03  1.00679285994E-02  1.01955418909E-02  1.03247603600E-02
  1.04556041974E-02  1.05880938476E-02  1.07222500125E-02  1.08580936542E-02
  1.09956459986E-02  1.11349285384E-02  1.12759630369E-02  1.14187715311E-02
  1.15633763349E-02  1.17098000433E-02  1.18580655352E-02  1.20081959774E-02
  1.21602148281E-02  1.23141458406E-02  1.24700130668E-02  1.26278408614E-02
  1.27876538852E-02  1.29494771094E-02  1.31133358192E-02  1.32792556179E-02
  1.34472624307E-02  1.36173825090E-02  1.37896424345E-02  1.39640691231E-02
  1.41406898294E-02  1.43195321507E-02  1.45006240314E-02  1.46839937676E-02
  1.48696700112E-02  1.50576817743E-02  1.52480584344E-02  1.54408297380E-02
  1.56360258061E-02  1.58336771385E-02  1.60338146186E-02  1.62364695183E-02
  1.64416735028E-02  1.66494586357E-02  1.68598573838E-02  1.70729026224E-02
  1.72886276402E-02  1.75070661447E-02  1.77282522673E-02  1.79522205689E-02
  1.81790060448E-02  1.84086441309E-02  1.86411707086E-02  1.88766221105E-02
  1.91150351265E-02  1.93564470090E-02  1.96008954792E-02  1.98484187327E-02
  2.00990554454E-02  2.03528447798E-02  2.06098263911E-02  2.08700404331E-02
  2.11335275648E-02  2.14003289567E-02  2.16704862969E-02  2.19440417982E-02
  2.22210382041E-02  2.25015187958E-02  2.27855273991E-02  2.30731083908E-02
  2.33643067061E-02  2.36591678453E-02  2.39577378810E-02  2.42600634655E-02
  2.45661918376E-02  2.48761708307E-02  2.51900488795E-02  2.55078750282E-02
  2.58296989376E-02  2.61555708935E-02  2.64855418140E-02  2.68196632578E-02
  2.71579874319E-02  2.75005672002E-02  2.78474560916E-02  2.81987083081E-02
  2.85543787336E-02  2.89145229422E-02  2.92791972074E-02  2.96484585101E-02
  3.00223645483E-02  3.04009737454E-02  3.07843452599E-02  3.11725389945E-02
  3.15656156051E-02  3.19636365109E-02  3.23666639033E-02  3.27747607562E-02
  3.31879908357E-02  3.36064187096E-02  3.40301097583E-02  3.44591301843E-02
  3.48935470230E-02  3.53334281528E-02  3.57788423061E-02  3.62298590797E-02
  3.66865489460E-02  3.71489832636E-02  3.76172342889E-02  3.80913751870E-02
  3.85714800434E-02  3.90576238755E-02  3.95498826442E-02  4.00483332660E-02
  4.05530536247E-02  4.10641225841E-02  4.15816199996E-02  4.21056267312E-02
  4.26362246562E-02  4.31734966814E-02  4.37175267567E-02  4.42683998880E-02
  4.48262021503E-02  4.53910207013E-02  4.59629437951E-02  4.65420607958E-02
  4.71284621916E-02  4.77222396090E-02  4.83234858268E-02  4.89322947910E-02
  4.95487616294E-02  5.01729826659E-02  5.08050554365E-02  5.14450787039E-02
  5.20931524728E-02  5.27493780063E-02  5.34138578409E-02  5.40866958028E-02
  5.47679970245E-02  5.54578679605E-02  5.61564164047E-02  5.68637515067E-02
  5.75799837889E-02  5.83052251642E-02  5.90395889530E-02  5.97831899012E-02
  6.05361441978E-02  6.12985694935E-02  6.20705849189E-02  6.28523111029E-02
  6.36438701919E-02  6.44453858684E-02  6.52569833711E-02  6.60787895136E-02
  6.69109327049E-02  6.77535429690E-02  6.86067519654E-02  6.94706930099E-02
  7.03455010949E-02  7.12313129110E-02  7.21282668682E-02  7.30365031172E-02
  7.39561635718E-02  7.48873919310E-02  7.58303337009E-02  7.67851362181E-02
  7.77519486726E-02  7.87309221307E-02  7.97222095589E-02  8.07259658481E-02
  8.17423478371E-02  8.27715143377E-02  8.38136261592E-02  8.48688461338E-02
  8.59373391417E-02  8.70192721372E-02  8.81148141743E-02  8.92241364340E-02
  9.03474122498E-02  9.14848171362E-02  9.26365288147E-02  9.38027272428E-02
  9.49835946413E-02  9.61793155232E-02  9.73900767222E-02  9.86160674223E-02
  9.98574791870E-02  1.01114505989E-01  1.02387344243E-01  1.03676192830E-01
  1.04981253137E-01  1.06302729082E-01  1.07640827148E-01  1.08995756415E-01
  1.10367728595E-01  1.11756958060E-01  1.13163661881E-01  1.14588059858E-01
  1.16030374555E-01  1.17490831338E-01  1.18969658406E-01  1.20467086829E-01
  1.21983350582E-01  1.23518686586E-01  1.25073334739E-01  1.26647537958E-01
  1.28241542217E-01  1.29855596581E-01  1.31489953249E-01  1.33144867594E-01
  1.34820598198E-01  1.36517406899E-01  1.38235558825E-01  1.39975322443E-01
  1.41736969592E-01  1.43520775535E-01  1.45327018995E-01  1.47155982200E-01
  1.49007950931E-01  1.50883214560E-01  1.52782066103E-01  1.54704802257E-01
  1.56651723455E-01  1.58623133906E-01  1.60619341649E-01  1.62640658594E-01
  1.64687400576E-01  1.66759887403E-01  1.68858442905E-01  1.70983394986E-01
  1.73135075674E-01  1.75313821172E-01  1.77519971916E-01  1.79753872620E-01
  1.82015872335E-01  1.84306324504E-01  1.86625587015E-01  1.88974022257E-01
  1.91351997178E-01  1.93759883342E-01  1.96198056984E-01  1.98666899076E-01
  2.01166795378E-01  2.03698136505E-01  2.06261317983E-01  2.08856740316E-01
  2.11484809042E-01  2.14145934804E-01  2.16840533407E-01  2.19569025888E-01
  2.22331838579E-01  2.25129403176E-01  2.27962156804E-01  2.30830542086E-01
  2.33735007213E-01  2.36676006014E-01  2.39653998026E-01  2.42669448567E-01
  2.45722828805E-01  2.48814615839E-01  2.51945292767E-01  2.55115348762E-01
  2.58325279153E-01  2.61575585498E-01  2.64866775664E-01  2.68199363906E-01
  2.71573870948E-01  2.74990824063E-01  2.78450757157E-01  2.81954210852E-01
  2.85501732569E-01  2.89093876617E-01  2.92731204274E-01  2.96414283881E-01
  3.00143690926E-01  3.03920008137E-01  3.07743825571E-01  3.11615740707E-01
  3.15536358541E-01  3.19506291675E-01  3.23526160422E-01  3.27596592892E-01
  3.31718225100E-01  3.35891701059E-01  3.40117672884E-01  3.44396800890E-01
  3.48729753700E-01  3.53117208347E-01  3.57559850380E-01  3.62058373970E-01
  3.66613482022E-01  3.71225886279E-01  3.75896307440E-01  3.80625475266E-01
  3.85414128702E-01  3.90263015982E-01  3.95172894756E-01  4.00144532203E-01
  4.05178705150E-01  4.10276200197E-01  4.15437813839E-01  4.20664352588E-01
  4.25956633102E-01  4.31315482309E-01  4.36741737542E-01  4.42236246662E-01
  4.47799868200E-01  4.53433471482E-01  4.59137936769E-01  4.64914155397E-01
  4.70763029910E-01  4.76685474209E-01  4.82682413686E-01  4.88754785375E-01
  4.94903538098E-01  5.01129632609E-01  5.07434041748E-01  5.13817750591E-01
  5.20281756607E-01  5.26827069810E-01  5.33454712917E-01  5.40165721512E-01
  5.46961144204E-01  5.53842042790E-01  5.60809492426E-01  5.67864581790E-01
  5.75008413253E-01  5.82242103054E-01  5.89566781472E-01  5.96983593002E-01
  6.04493696536E-01  6.12098265544E-01  6.19798488255E-01  6.27595567844E-01
  6.35490722621E-01  6.43485186219E-01  6.51580207791E-01  6.59777052199E-01
  6.68077000217E-01  6.76481348729E-01  6.84991410932E-01  6.93608516540E-01
  7.02334011992E-01  7.11169260667E-01  7.20115643089E-01  7.29174557149E-01
  7.38347418320E-01  7.47635659881E-01  7.57040733139E-01  7.66564107654E-01
  7.76207271475E-01  7.85971731364E-01  7.95859013039E-01  8.05870661407E-01
  8.16008240809E-01  8.26273335262E-01  8.36667548708E-01  8.47192505265E-01
  8.57849849478E-01  8.68641246578E-01  8.79568382744E-01  8.90632965362E-01
  9.01836723297E-01  9.13181407158E-01  9.24668789575E-01  9.36300665476E-01
  9.48078852363E-01  9.60005190604E-01  9.72081543712E-01  9.84309798643E-01
  9.96691866086E-01  1.00922968076E+00  1.02192520174E+00  1.03478041270E+00
  1.04779732232E+00  1.06097796450E+00  1.07432439875E+00  1.08783871048E+00
  1.10152301133E+00  1.11537943948E+00  1.12941016005E+00  1.14361736536E+00
  1.15800327531E+00  1.17257013773E+00  1.18732022873E+00  1.20225585303E+00
  1.21737934435E+00  1.23269306578E+00  1.24819941011E+00  1.26390080025E+00
  1.27979968955E+00  1.29589856227E+00  1.31219993388E+00  1.32870635150E+00
  1.34542039429E+00  1.36234467386E+00  1.37948183466E+00  1.39683455441E+00
  1.41440554450E+00  1.43219755044E+00  1.45021335227E+00  1.46845576498E+00
  1.48692763900E+00  1.50563186059E+00  1.52457135233E+00  1.54374907354E+00
  1.56316802079E+00  1.58283122833E+00  1.60274176858E+00  1.62290275258E+00
  1.64331733055E+00  1.66398869230E+00  1.68492006777E+00  1.70611472753E+00
  1.72757598329E+00  1.74930718842E+00  1.77131173846E+00  1.79359307166E+00
  1.81615466954E+00  1.83900005738E+00  1.86213280482E+00  1.88555652641E+00
  1.90927488215E+00  1.93329157807E+00  1.95761036684E+00  1.98223504831E+00
  2.00716947015E+00  2.03241752840E+00  2.05798316813E+00  2.08387038402E+00
  2.11008322101E+00  2.13662577489E+00  2.16350219300E+00  2.19071667483E+00
  2.21827347270E+00  2.24617689242E+00  2.27443129395E+00  2.30304109211E+00
  2.33201075722E+00  2.36134481586E+00  2.39104785154E+00  2.42112450541E+00
  2.45157947701E+00  2.48241752500E+00  2.51364346788E+00  2.54526218477E+00
  2.57727861616E+00  2.60969776468E+00  2.64252469589E+00  2.67576453906E+00
  2.70942248799E+00  2.74350380180E+00  2.77801380576E+00  2.81295789214E+00
  2.84834152101E+00  2.88417022114E+00  2.92044959084E+00  2.95718529884E+00
  2.99438308515E+00  3.03204876202E+00  3.07018821479E+00  3.10880740280E+00
  3.14791236041E+00  3.18750919783E+00  3.22760410215E+00  3.26820333828E+00
  3.30931324993E+00  3.35094026062E+00  3.39309087464E+00  3.43577167812E+00
  3.47898934002E+00  3.52275061318E+00  3.56706233540E+00  3.61193143047E+00
  3.65736490927E+00  3.70336987089E+00  3.74995350369E+00  3.79712308645E+00
  3.84488598953E+00  3.89324967597E+00  3.94222170269E+00  3.99180972168E+00
  4.04202148117E+00  4.09286482683E+00  4.14434770306E+00  4.19647815415E+00
  4.24926432559E+00  4.30271446533E+00  4.35683692507E+00  4.41164016154E+00
  4.46713273787E+00  4.52332332488E+00  4.58022070246E+00  4.63783376095E+00
  4.69617150251E+00  4.75524304252E+00  4.81505761103E+00  4.87562455419E+00
  4.93695333572E+00  4.99905353835E+00  5.06193486537E+00  5.12560714212E+00
  5.19008031751E+00  5.25536446561E+00  5.32146978721E+00  5.38840661140E+00
  5.45618539718E+00  5.52481673513E+00  5.59431134905E+00  5.66468009759E+00
  5.73593397603E+00  5.80808411793E+00  5.88114179689E+00  5.95511842833E+00
  6.03002557124E+00  6.10587493001E+00  6.18267835627E+00  6.26044785071E+00
  6.33919556496E+00  6.41893380352E+00  6.49967502565E+00  6.58143184733E+00
  6.66421704323E+00  6.74804354870E+00  6.83292446181E+00  6.91887304538E+00
  7.00590272903E+00  7.09402711135E+00  7.18325996193E+00  7.27361522361E+00
  7.36510701456E+00  7.45774963058E+00  7.55155754725E+00  7.64654542225E+00
  7.74272809764E+00  7.84012060215E+00  7.93873815355E+00  8.03859616105E+00
  8.13971022766E+00  8.24209615265E+00  8.34576993404E+00  8.45074777106E+00
  8.55704606672E+00  8.66468143034E+00  8.77367068017E+00  8.88403084599E+00
  8.99577917181E+00  9.10893311854E+00  9.22351036669E+00  9.33952881922E+00
  9.45700660422E+00  9.57596207785E+00  9.69641382714E+00  9.81838067292E+00
  9.94188167276E+00  1.00669361239E+01  1.01935635665E+01  1.03217837862E+01
  1.04516168177E+01  1.05830829477E+01  1.07162027180E+01  1.08509969290E+01
  1.09874866423E+01  1.11256931850E+01  1.12656381519E+01  1.14073434098E+01
  1.15508311004E+01  1.16961236440E+01  1.18432437428E+01  1.19922143847E+01
  1.21430588465E+01  1.22958006981E+01  1.24504638057E+01  1.26070723356E+01
  1.27656507584E+01  1.29262238522E+01  1.30888167069E+01  1.32534547279E+01
  1.34201636403E+01  1.35889694926E+01  1.37598986612E+01  1.39329778541E+01
  1.41082341152E+01  1.42856948286E+01  1.44653877231E+01  1.46473408759E+01
  1.48315827177E+01  1.50181420365E+01  1.52070479827E+01  1.53983300732E+01
  1.55920181961E+01  1.57881426158E+01  1.59867339769E+01  1.61878233099E+01
  1.63914420353E+01  1.65976219689E+01  1.68063953269E+01  1.70177947304E+01
  1.72318532111E+01  1.74486042160E+01  1.76680816129E+01  1.78903196957E+01
  1.81153531893E+01  1.83432172559E+01  1.85739474996E+01  1.88075799725E+01
  1.90441511801E+01  1.92836980872E+01  1.95262581235E+01  1.97718691894E+01
  2.00205696622E+01  2.02723984018E+01  2.05273947571E+01  2.07855985716E+01
  2.10470501903E+01  2.13117904656E+01  2.15798607635E+01  2.18513029707E+01
  2.21261595006E+01  2.24044733000E+01  2.26862878560E+01  2.29716472028E+01
  2.32605959283E+01  2.35531791813E+01  2.38494426786E+01  2.41494327120E+01
  2.44531961554E+01  2.47607804726E+01  2.50722337242E+01  2.53876045755E+01
  2.57069423037E+01  2.60302968061E+01  2.63577186074E+01  2.66892588679E+01
  2.70249693916E+01  2.73649026338E+01  2.77091117099E+01  2.80576504031E+01
  2.84105731733E+01  2.87679351656E+01  2.91297922183E+01  2.94962008725E+01
  2.98672183801E+01  3.02429027135E+01  3.06233125741E+01  3.10085074017E+01
  3.13985473837E+01  3.17934934647E+01  3.21934073559E+01  3.25983515446E+01
  3.30083893042E+01  3.34235847038E+01  3.38440026187E+01  3.42697087399E+01
  3.47007695849E+01  3.51372525079E+01  3.55792257102E+01  3.60267582510E+01
  3.64799200581E+01  3.69387819391E+01  3.74034155921E+01  3.78738936169E+01
  3.83502895267E+01  3.88326777595E+01  3.93211336892E+01  3.98157336382E+01
  4.03165548886E+01  4.08236756949E+01  4.13371752957E+01  4.18571339263E+01
  4.23836328314E+01  4.29167542774E+01  4.34565815657E+01  4.40031990454E+01
  4.45566921266E+01  4.51171472936E+01  4.56846521188E+01  4.62592952760E+01
  4.68411665543E+01  4.74303568722E+01  4.80269582920E+01  4.86310640339E+01
  4.92427684906E+01  4.98621672421E+01  5.04893570708E+01  5.11244359764E+01
  5.17675031912E+01  5.24186591958E+01  5.30780057346E+01  5.37456458320E+01
  5.44216838079E+01  5.51062252948E+01  5.57993772536E+01  5.65012479907E+01
  5.72119471749E+01  5.79315858543E+01  5.86602764740E+01  5.93981328934E+01
  6.01452704039E+01  6.09018057474E+01  6.16678571341E+01  6.24435442610E+01
  6.32289883309E+01  6.40243120709E+01  6.48296397520E+01  6.56450972084E+01
  6.64708118568E+01  6.73069127170E+01  6.81535304313E+01  6.90107972855E+01
  6.98788472292E+01  7.07578158972E+01  7.16478406299E+01  7.25490604956E+01
  7.34616163117E+01  7.43856506669E+01  7.53213079435E+01  7.62687343398E+01
  7.72280778931E+01  7.81994885028E+01  7.91831179537E+01  8.01791199401E+01
  8.11876500892E+01  8.22088659858E+01  8.32429271972E+01  8.42899952974E+01
  8.53502338929E+01  8.64238086483E+01  8.75108873117E+01  8.86116397413E+01
  8.97262379321E+01  9.08548560422E+01  9.19976704205E+01  9.31548596340E+01
  9.43266044961E+01  9.55130880941E+01  9.67144958185E+01  9.79310153918E+01
  9.91628368975E+01  1.00410152810E+02  1.01673158026E+02  1.02952049892E+02
  1.04247028237E+02  1.05558295404E+02  1.06886056282E+02  1.08230518335E+02
  1.09591891640E+02  1.10970388912E+02  1.12366225546E+02  1.13779619643E+02
  1.15210792049E+02  1.16659966389E+02  1.18127369097E+02  1.19613229459E+02
  </PP_R>
  <PP_RAB>
  1.21792438029E-08  2.45116836338E-08  3.69992464615E-08  4.96438834930E-08
  6.24475704788E-08  7.54123080208E-08  8.85401218856E-08  1.01833063321E-07
  1.15293209376E-07  1.28922663226E-07  1.42723554501E-07  1.56698039618E-07
  1.70848302119E-07  1.85176553010E-07  1.99685031113E-07  2.14376003403E-07
  2.29251765375E-07  2.44314641400E-07  2.59566985080E-07  2.75011179626E-07
  2.90649638225E-07  3.06484804418E-07  3.22519152481E-07  3.38755187815E-07
  3.55195447331E-07  3.71842499856E-07  3.88698946524E-07  4.05767421190E-07
  4.23050590836E-07  4.40551155996E-07  4.58271851165E-07  4.76215445241E-07
  4.94384741945E-07  5.12782580266E-07  5.31411834906E-07  5.50275416723E-07
  5.69376273189E-07  5.88717388853E-07  6.08301785803E-07  6.28132524140E-07
  6.48212702459E-07  6.68545458328E-07  6.89133968780E-07  7.09981450815E-07
  7.31091161891E-07  7.52466400446E-07  7.74110506403E-07  7.96026861698E-07
  8.18218890805E-07  8.40690061276E-07  8.63443884275E-07  8.86483915135E-07
  9.09813753906E-07  9.33437045924E-07  9.57357482375E-07  9.81578800876E-07
  1.00610478606E-06  1.03093927016E-06  1.05608613361E-06  1.08154930567E-06
  1.10733276500E-06  1.13344054033E-06  1.15987671104E-06  1.18664540785E-06
  1.21375081341E-06  1.24119716300E-06  1.26898874518E-06  1.29712990241E-06
  1.32562503184E-06  1.35447858586E-06  1.38369507293E-06  1.41327905815E-06
  1.44323516409E-06  1.47356807148E-06  1.50428251985E-06  1.53538330844E-06
  1.56687529678E-06  1.59876340558E-06  1.63105261740E-06  1.66374797751E-06
  1.69685459463E-06  1.73037764171E-06  1.76432235683E-06  1.79869404390E-06
  1.83349807358E-06  1.86873988404E-06  1.90442498193E-06  1.94055894308E-06
  1.97714741350E-06  2.01419611024E-06  2.05171082220E-06  2.08969741115E-06
  2.12816181258E-06  2.16711003661E-06  2.20654816900E-06  2.24648237201E-06
  2.28691888548E-06  2.32786402765E-06  2.36932419631E-06  2.41130586971E-06
  2.45381560754E-06  2.49686005205E-06  2.54044592903E-06  2.58458004884E-06
  2.62926930754E-06  2.67452068791E-06  2.72034126059E-06  2.76673818511E-06
  2.81371871110E-06  2.86129017936E-06  2.90946002303E-06  2.95823576874E-06
  3.00762503780E-06  3.05763554740E-06  3.10827511176E-06  3.15955164344E-06
  3.21147315448E-06  3.26404775773E-06  3.31728366808E-06  3.37118920374E-06
  3.42577278758E-06  3.48104294838E-06  3.53700832221E-06  3.59367765380E-06
  3.65105979783E-06  3.70916372036E-06  3.76799850029E-06  3.82757333063E-06
  3.88789752009E-06  3.94898049444E-06  4.01083179803E-06  4.07346109524E-06
  4.13687817204E-06  4.20109293745E-06  4.26611542519E-06  4.33195579513E-06
  4.39862433498E-06  4.46613146183E-06  4.53448772380E-06  4.60370380169E-06
  4.67379051068E-06  4.74475880193E-06  4.81661976439E-06  4.88938462649E-06
  4.96306475788E-06  5.03767167124E-06  5.11321702403E-06  5.18971262039E-06
  5.26717041290E-06  5.34560250449E-06  5.42502115035E-06  5.50543875980E-06
  5.58686789825E-06  5.66932128918E-06  5.75281181609E-06  5.83735252454E-06
  5.92295662420E-06  6.00963749088E-06  6.09740866864E-06  6.18628387190E-06
  6.27627698760E-06  6.36740207735E-06  6.45967337963E-06  6.55310531200E-06
  6.64771247341E-06  6.74350964641E-06  6.84051179953E-06  6.93873408951E-06
  7.03819186381E-06  7.13890066290E-06  7.24087622275E-06  7.34413447723E-06
  7.44869156066E-06  7.55456381030E-06  7.66176776890E-06  7.77032018730E-06
  7.88023802704E-06  7.99153846299E-06  8.10423888609E-06  8.21835690599E-06
  8.33391035389E-06  8.45091728521E-06  8.56939598256E-06  8.68936495846E-06
  8.81084295831E-06  8.93384896330E-06  9.05840219336E-06  9.18452211019E-06
  9.31222842028E-06  9.44154107800E-06  9.57248028873E-06  9.70506651196E-06
  9.83932046459E-06  9.97526312405E-06  1.01129157317E-05  1.02522997959E-05
  1.03934370959E-05  1.05363496846E-05  1.06810598923E-05  1.08275903303E-05
  1.09759638944E-05  1.11262037682E-05  1.12783334269E-05  1.14323766412E-05
  1.15883574806E-05  1.17463003174E-05  1.19062298305E-05  1.20681710092E-05
  1.22321491573E-05  1.23981898965E-05  1.25663191711E-05  1.27365632516E-05
  1.29089487391E-05  1.30835025690E-05  1.32602520159E-05  1.34392246971E-05
  1.36204485775E-05  1.38039519738E-05  1.39897635585E-05  1.41779123653E-05
  1.43684277928E-05  1.45613396093E-05  1.47566779576E-05  1.49544733600E-05
  1.51547567224E-05  1.53575593391E-05  1.55629128989E-05  1.57708494884E-05
  1.59814015983E-05  1.61946021276E-05  1.64104843895E-05  1.66290821160E-05
  1.68504294634E-05  1.70745610176E-05  1.73015117998E-05  1.75313172713E-05
  1.77640133399E-05  1.79996363646E-05  1.82382231621E-05  1.84798110121E-05
  1.87244376633E-05  1.89721413389E-05  1.92229607431E-05  1.94769350671E-05
  1.97341039948E-05  1.99945077094E-05  2.02581868995E-05  2.05251827655E-05
  2.07955370261E-05  2.10692919246E-05  2.13464902359E-05  2.16271752728E-05
  2.19113908926E-05  2.21991815050E-05  2.24905920776E-05  2.27856681440E-05
  2.30844558104E-05  2.33870017629E-05  2.36933532750E-05  2.40035582149E-05
  2.43176650525E-05  2.46357228678E-05  2.49577813578E-05  2.52838908450E-05
  2.56141022845E-05  2.59484672726E-05  2.62870380546E-05  2.66298675328E-05
  2.69770092749E-05  2.73285175225E-05  2.76844471996E-05  2.80448539210E-05
  2.84097940008E-05  2.87793244618E-05  2.91535030436E-05  2.95323882128E-05
  2.99160391705E-05  3.03045158633E-05  3.06978789914E-05  3.10961900185E-05
  3.14995111815E-05  3.19079055003E-05  3.23214367871E-05  3.27401696573E-05
  3.31641695386E-05  3.35935026818E-05  3.40282361711E-05  3.44684379346E-05
  3.49141767548E-05  3.53655222789E-05  3.58225450309E-05  3.62853164215E-05
  3.67539087595E-05  3.72283952635E-05  3.77088500731E-05  3.81953482603E-05
  3.86879658411E-05  3.91867797885E-05  3.96918680429E-05  4.02033095255E-05
  4.07211841499E-05  4.12455728353E-05  4.17765575183E-05  4.23142211663E-05
  4.28586477905E-05  4.34099224586E-05  4.39681313085E-05  4.45333615613E-05
  4.51057015354E-05  4.56852406601E-05  4.62720694898E-05  4.68662797173E-05